
Running Job 1 of 1 FCD_ethylene_benzene.inp
qchem FCD_ethylene_benzene.inp_17482.0 /tmp_qchem/qchem17482/ 1
/usr/local/qchem/exe/qcprog.exe_s FCD_ethylene_benzene.inp_17482.0 /tmp_qchem/qchem17482/
Check license passed

                  Welcome to Q-Chem
     A Quantum Leap Into The Future Of Chemistry


 Q-Chem 4.4, Q-Chem, Inc., Pleasanton, CA (2016)

 Y. Shao,  Z. Gan,  E. Epifanovsky,  A. T. B. Gilbert,  M. Wormit,  
 J. Kussmann,  A. W. Lange,  A. Behn,  J. Deng,  X. Feng,  D. Ghosh,  
 M. Goldey,  P. R. Horn,  L. D. Jacobson,  I. Kaliman,  F. Rob,  
 R. Z. Khaliullin,  T. Kus,  A. Landau,  J. Liu,  E. I. Proynov,  Y. M. Rhee,  
 R. M. Richard,  M. A. Rohrdanz,  R. P. Steele,  E. J. Sundstrom,  
 H. L. Woodcock III,  P. M. Zimmerman,  D. Zuev,  B. Albrecht,  E. Alguire,  
 B. Austin,  S. A. Baeppler,  G. J. O. Beran,  Y. A. Bernard,  E. Berquist,  
 K. Brandhorst,  K. B. Bravaya,  S. T. Brown,  D. Casanova,  C.-M. Chang,  
 Y. Chen,  S. H. Chien,  K. D. Closser,  M. P. Coons,  D. L. Crittenden,  
 S. Dasgupta,  M. Diedenhofen,  R. A. DiStasio Jr.,  H. Do,  A. D. Dutoi,  
 R. G. Edgar,  P.-T. Fang,  S. Fatehi,  Q. Feng,  L. Fusti-Molnar,  
 A. Ghysels,  A. Golubeva-Zadorozhnaya,  J. Gomes,  A. Gunina,  
 M. W. D. Hanson-Heine,  P. H. P. Harbach,  A. W. Hauser,  J. E. Herr,  
 E. G. Hohenstein,  Z. C. Holden,  K. Hui,  T.-C. Jagau,  H. Ji,  B. Kaduk,  
 K. Khistyaev,  Jaehoon Kim,  Jihan Kim,  R. A. King,  P. Klunzinger,  
 K. Koh,  D. Kosenkov,  T. Kowalczyk,  C. M. Krauter,  A. Kunitsa,  
 K. U. Lao,  A. Laurent,  K. V. Lawler,  J. Lee,  D. Lefrancois,  S. Lehtola,  
 S. V. Levchenko,  C. Y. Lin,  Y.-S. Lin,  F. Liu,  E. Livshits,  
 R. C. Lochan,  A. Luenser,  P. Manohar,  S. F. Manzer,  S.-P. Mao,  Y. Mao,  
 N. Mardirossian,  A. V. Marenich,  L. A. Martinez-Martinez,  S. A. Maurer,  
 N. J. Mayhall,  J.-M. Mewes,  A. F. Morrison,  K. Nanda,  T. S. Nguyen-Beck,  
 C. M. Oana,  R. Olivares-Amaya,  D. P. O'Neill,  J. A. Parkhill,  
 T. M. Perrine,  R. Peverati,  P. A. Pieniazek,  F. Plasser,  A. Prociuk,  
 D. R. Rehn,  E. Rosta,  N. J. Russ,  N. Sergueev,  S. M. Sharada,  
 S. Sharma,  D. W. Small,  A. Sodt,  T. Stauch,  T. Stein,  D. Stuck,  
 Y.-C. Su,  A. J. W. Thom,  T. Tsuchimochi,  L. Vogt,  O. Vydrov,  T. Wang,  
 M. A. Watson,  J. Wenzel,  A. White,  C. F. Williams,  V. Vanovschi,  
 K. Yao,  S. Yeganeh,  S. R. Yost,  Z.-Q. You,  I. Y. Zhang,  X. Zhang,  
 Y. Zhao,  B. R. Brooks,  G. K. L. Chan,  D. M. Chipman,  C. J. Cramer,  
 W. A. Goddard III,  M. S. Gordon,  W. J. Hehre,  A. Klamt,  
 H. F. Schaefer III,  M. W. Schmidt,  C. D. Sherrill,  D. G. Truhlar,  
 A. Warshel,  X. Xu,  A. Aspuru-Guzik,  R. Baer,  A. T. Bell,  N. A. Besley,  
 J.-D. Chai,  A. Dreuw,  B. D. Dunietz,  T. R. Furlani,  S. R. Gwaltney,  
 C.-P. Hsu,  Y. Jung,  J. Kong,  D. S. Lambrecht,  W. Liang,  C. Ochsenfeld,  
 V. A. Rassolov,  L. V. Slipchenko,  J. E. Subotnik,  T. Van Voorhis,  
 J. M. Herbert,  A. I. Krylov,  P. M. W. Gill,  M. Head-Gordon

 Contributors to earlier versions of Q-Chem not listed above: 
 R. D. Adamson,  J. Baker,  E. F. C. Byrd,  A. K. Chakraborty,  C.-L. Cheng,  
 H. Dachsel,  R. J. Doerksen,  G. Hawkins,  A. Heyden,  S. Hirata,  
 G. Kedziora,  F. J. Keil,  C. Kelley,  P. P. Korambath,  W. Kurlancheek,  
 A. M. Lee,  M. S. Lee,  D. Liotard,  I. Lotan,  P. E. Maslen,  N. Nair,  
 D. Neuhauser,  R. Olson,  B. Peters,  J. Ritchie,  N. E. Schultz,  
 N. Shenvi,  A. C. Simmonett,  K. S. Thanthiriwatte,  Q. Wu,  W. Zhang

 Please cite Q-Chem as follows:
 Y. Shao et al., Mol. Phys. 113, 184-215 (2015)
 DOI: 10.1080/00268976.2014.952696

 Q-Chem 4.4.2 for Intel X86 Linux

 Parts of Q-Chem use Armadillo 5.200.1 (Boston Tea Smuggler).
 http://arma.sourceforge.net/

 Q-Chem begins on Tue Feb  4 09:43:45 2020  

Host: 
0

     Scratch files written to /tmp_qchem/qchem17482//
 Dec716 11556_ 22328  22283 4817   
Processing $rem in /usr/local/qchem/config/preferences.
 MEM_TOTAL  24576 
FILE_GEOM_ORG=        593

Checking the input file for inconsistencies... 	...done.

--------------------------------------------------------------
User input:
--------------------------------------------------------------
$molecule
0  1
C     0.670518    0.000000    0.000000
H     1.241372    0.927754    0.000000
H     1.241372   -0.927754    0.000000
C    -0.670518    0.000000    0.000000
H    -1.241372   -0.927754    0.000000
H    -1.241372    0.927754    0.000000
C       1.3862000000     0.0000000000    2.5
C       0.6931000000     1.2004844147    2.5
C      -0.6931000000     1.2004844147    2.5
C      -1.3862000000     0.0000000000    2.5
C      -0.6931000000    -1.2004844147    2.5
C       0.6931000000    -1.2004844147    2.5
H       2.4618000000     0.0000000000    2.5
H       1.2309000000     2.1319813390    2.5
H      -1.2309000000     2.1319813390    2.5
H      -2.4618000000     0.0000000000    2.5
H      -1.2309000000    -2.1319813390    2.5
H       1.2309000000    -2.1319813390    2.5
$end

$rem
basis 		6-31G
METHOD 			CIS
CIS_N_ROOTS       10
CIS_SINGLETS      true
CIS_TRIPLETS      false
STS_FCD           true
STS_FED			 true
STS_DONOR         1-6
STS_ACCEPTOR      7-18
POP_MULLIKEN      -1
STS_MOM			 true
CIS_MULLIKEN      2
$end

--------------------------------------------------------------
 ----------------------------------------------------------------
             Standard Nuclear Orientation (Angstroms)
    I     Atom           X                Y                Z
 ----------------------------------------------------------------
    1      C      -0.6705180000     0.0000000000    -1.8103448276
    2      H      -1.2413720000    -0.9277540000    -1.8103448276
    3      H      -1.2413720000     0.9277540000    -1.8103448276
    4      C       0.6705180000     0.0000000000    -1.8103448276
    5      H       1.2413720000     0.9277540000    -1.8103448276
    6      H       1.2413720000    -0.9277540000    -1.8103448276
    7      C      -1.3862000000     0.0000000000     0.6896551724
    8      C      -0.6931000000    -1.2004844147     0.6896551724
    9      C       0.6931000000    -1.2004844147     0.6896551724
   10      C       1.3862000000     0.0000000000     0.6896551724
   11      C       0.6931000000     1.2004844147     0.6896551724
   12      C      -0.6931000000     1.2004844147     0.6896551724
   13      H      -2.4618000000     0.0000000000     0.6896551724
   14      H      -1.2309000000    -2.1319813390     0.6896551724
   15      H       1.2309000000    -2.1319813390     0.6896551724
   16      H       2.4618000000     0.0000000000     0.6896551724
   17      H       1.2309000000     2.1319813390     0.6896551724
   18      H      -1.2309000000     2.1319813390     0.6896551724
 ----------------------------------------------------------------
 Molecular Point Group                 C2v   NOp =  4
 Largest Abelian Subgroup              C2v   NOp =  4
 Nuclear Repulsion Energy =   355.0883443900 hartrees
 There are       29 alpha and       29 beta electrons
 Requested basis set is 6-31G
 There are 44 shells and 92 basis functions

 Total QAlloc Memory Limit  24576 MB
 Mega-Array Size        61 MB
 MEM_STATIC part        62 MB
 A cutoff of  1.0D-11 yielded    938 shell pairs
 There are      4322 function pairs
 
 -------------------------------------------------------
 OpenMP Integral Computing Module                       
 Release: version 1.0, May 2013, Q-Chem Inc. Pittsburgh 
 -------------------------------------------------------
 Integral Job Info:
 Integral job number is                      11
 Integral operator is                         1
 short-range coefficients                     0
 long-range coefficients              100000000
 Omega coefficients                           0
 if combine SR and LR in K                    0
 Integral screening is                        0
 Integral computing path is                   2
 max size of driver memory is            800000
 size of driver memory is                 45569
 size of scratch memory is              1939132
 max col of scratch BK array                289
 max len of scratch array in speh3           22
 max len of scratch index in speh4            8
 max int batch size is                      520
 min int batch size is                       52
 fixed nKL is                                52
 max L of basis functions is                  1
 order of int derivative is                   0
 number of shells is                         44
 number of basis is                          92
 number of cartesian basis is                92
 number of contracted shell pairs           938
 number of primitive shell pairs           4156
 maxK2 (contraction) of shell pair           36
 max number of K2 of shell pair               1
 max number of CS2 of shell pair            164
 max number of PS2 of shell pair            672
 mem total for path MDJ                   19914
 -------------------------------------------------------
 Smallest overlap matrix eigenvalue = 6.31E-04

 Scale SEOQF with 1.000000e-01/1.000000e-01/1.000000e-01

 Standard Electronic Orientation quadrupole field applied
 Nucleus-field energy     =    -0.0000000014 hartrees
 Guess from superposition of atomic densities
 Warning:  Energy on first SCF cycle will be non-variational
 A restricted Hartree-Fock SCF calculation will be
 performed using Pulay DIIS extrapolation
 SCF converges when DIIS error is below 1.0E-08
 ---------------------------------------
  Cycle       Energy         DIIS Error
 ---------------------------------------
    1    -311.8125148940      1.08E-01
    2    -308.5022941946      6.56E-03
    3    -308.5703479199      1.58E-03
    4    -308.5746751951      4.97E-04
    5    -308.5750044483      5.92E-05
    6    -308.5750126054      1.44E-05
    7    -308.5750130913      5.87E-06
    8    -308.5750131716      1.30E-06
    9    -308.5750131800      2.79E-07
   10    -308.5750131802      4.82E-08
   11    -308.5750131802      1.28E-08
   12    -308.5750131802      2.80E-09 Convergence criterion met
 ---------------------------------------
 SCF time:  CPU 0.61 s  wall 0.61 s
 SCF   energy in the final basis set = -308.5750131802
 Total energy in the final basis set = -308.5750131802
 Direct RCIS calculation will be performed
 Singlet excitation energies requested
 CIS energy converged when residual is below 10e- 6
 ---------------------------------------------------
 Iter    Rts Conv    Rts Left    Ttl Dev     Max Dev
 ---------------------------------------------------
   1         0          10      0.018811    0.003916
   2         0          10      0.004879    0.001072
   3         0          10      0.001292    0.000236
   4         0          10      0.000618    0.000206
   5         0          10      0.000541    0.000183
   6         0          10      0.001800    0.001572
   7         2           8      0.000580    0.000405
   8         4           6      0.000385    0.000227
   9         5           5      0.000563    0.000418
  10         6           4      0.000264    0.000140
  11         7           3      0.000100    0.000062
  12         7           3      0.000145    0.000117
  13         7           3      0.000044    0.000034
  14         7           3      0.000020    0.000014
  15         9           1      0.000008    0.000004
  16         9           1      0.000005    0.000002
  17        10           0      0.000004    0.000001    Roots Converged
 ---------------------------------------------------
 
 
 ---------------------------------------------------
               CIS Excitation Energies              
 ---------------------------------------------------

 Excited state   1: excitation energy (eV) =    6.4781
    Total energy for state   1:   -308.336948596266
    Multiplicity: Singlet 
    Trans. Mom.:  0.0000 X   0.1525 Y   0.0000 Z
    Strength   :     0.0036918512
    D( 27) --> V(  2) amplitude = -0.6464
    D( 28) --> V(  1) amplitude =  0.7593

 Excited state   2: excitation energy (eV) =    6.6917
    Total energy for state   2:   -308.329096649179
    Multiplicity: Singlet 
    Trans. Mom.:  0.0371 X   0.0000 Y   0.0000 Z
    Strength   :     0.0002260316
    D( 27) --> V(  1) amplitude =  0.7012
    D( 28) --> V(  2) amplitude =  0.6818

 Excited state   3: excitation energy (eV) =    7.2418
    Total energy for state   3:   -308.308881730298
    Multiplicity: Singlet 
    Trans. Mom.:  0.0000 X   0.0000 Y  -0.1434 Z
    Strength   :     0.0036486851
    D( 29) --> V(  1) amplitude =  0.9847

 Excited state   4: excitation energy (eV) =    7.5708
    Total energy for state   4:   -308.296790354092
    Multiplicity: Singlet 
    Trans. Mom.:  0.0000 X   0.0000 Y   0.0000 Z
    Strength   :     0.0000000000
    D( 29) --> V(  2) amplitude =  0.9901

 Excited state   5: excitation energy (eV) =    7.7059
    Total energy for state   5:   -308.291826485924
    Multiplicity: Singlet 
    Trans. Mom.:  0.2157 X   0.0000 Y   0.0000 Z
    Strength   :     0.0087830822
    D( 27) --> V(  1) amplitude =  0.4431
    D( 28) --> V(  2) amplitude = -0.4501
    D( 29) --> V(  3) amplitude =  0.7402

 Excited state   6: excitation energy (eV) =    8.4901
    Total energy for state   6:   -308.263008891950
    Multiplicity: Singlet 
    Trans. Mom.:  0.0000 X   1.9827 Y   0.0000 Z
    Strength   :     0.8177169135
    D( 27) --> V(  2) amplitude =  0.7344
    D( 28) --> V(  1) amplitude =  0.6237

 Excited state   7: excitation energy (eV) =    9.2702
    Total energy for state   7:   -308.234340500555
    Multiplicity: Singlet 
    Trans. Mom.: -2.5756 X   0.0000 Y   0.0000 Z
    Strength   :     1.5066661637
    D( 27) --> V(  1) amplitude = -0.5059
    D( 28) --> V(  2) amplitude =  0.5217
    D( 29) --> V(  3) amplitude =  0.6107

 Excited state   8: excitation energy (eV) =    9.3889
    Total energy for state   8:   -308.229977739672
    Multiplicity: Singlet 
    Trans. Mom.:  0.0000 X   0.0640 Y   0.0000 Z
    Strength   :     0.0009410040
    D( 28) --> V(  4) amplitude = -0.6341
    D( 29) --> V(  5) amplitude = -0.5917
    D( 29) --> V(  8) amplitude =  0.4216

 Excited state   9: excitation energy (eV) =    9.5128
    Total energy for state   9:   -308.225424475986
    Multiplicity: Singlet 
    Trans. Mom.:  0.0000 X   0.0000 Y   0.0000 Z
    Strength   :     0.0000000000
    D( 24) --> V(  2) amplitude = -0.4742
    D( 25) --> V(  1) amplitude = -0.7876

 Excited state  10: excitation energy (eV) =    9.5382
    Total energy for state  10:   -308.224489016862
    Multiplicity: Singlet 
    Trans. Mom.:  0.0000 X  -0.1126 Y   0.0000 Z
    Strength   :     0.0029638527
    D( 26) --> V(  3) amplitude =  0.2163
    D( 28) --> V(  4) amplitude =  0.6932
    D( 29) --> V(  5) amplitude = -0.3437
    D( 29) --> V(  8) amplitude =  0.5433
 
 ---------------------------------------------------
  Timing summary (seconds)
  CPU time         10.04s
  System time       0.00s
  Wall time        10.04s

                    FED ELECTRONIC-COUPLING CALCULATION


 Within CIS/TDA Excited States:

       Fragment Excitations of Singlet Excited State 
 -----------------------------------------------------
   State         X(D)        X(A)          dX
 -----------------------------------------------------
       1    -0.029530   -1.970470    1.940941
       2    -0.032278   -1.967722    1.935444
       3    -0.913615   -1.086385    0.172770
       4    -0.831625   -1.168375    0.336751
       5    -1.123735   -0.876265   -0.247471
       6    -0.090103   -1.909897    1.819794
       7    -0.810010   -1.189990    0.379980
       8    -1.039939   -0.960061   -0.079878
       9    -0.048671   -1.951329    1.902659
      10    -0.942382   -1.057618    0.115235
 -----------------------------------------------------

               Fragment Excitations of Transition Densities and
            FED Couplings Between Singlet Excited States
 --------------------------------------------------------------------------------
    States     X12(D)     X12(A)       dX12    Coupling(eV)   FED-dX1    FED-dX2
 --------------------------------------------------------------------------------
    1    2  -0.000000   0.000000  -0.000000  -1.294719E-14   1.940941   1.935444
    1    3   0.000000  -0.000000   0.000000   6.761606E-15   1.940941   0.172770
    1    4  -0.000000   0.000000  -0.000000  -6.201457E-15   1.940941   0.336751
    1    5   0.000000  -0.000000   0.000000   8.284628E-15   1.940941  -0.247471
    1    6  -0.005135   0.005135  -0.010271     -0.1681796   1.941805   1.818929
    1    7   0.000000  -0.000000   0.000000   3.812869E-14   1.940941   0.379980
    1    8   0.006469  -0.006469   0.012938     0.01863445   1.941023  -0.079961
    1    9   0.000000  -0.000000   0.000000   7.040852E-13   1.940941   1.902659
    1   10  -0.012031   0.012031  -0.024063    -0.04031951   1.941258   0.114918
    2    3   0.000000  -0.000000   0.000000   5.231641E-15   1.935444   0.172770
    2    4   0.000000  -0.000000   0.000000    9.52374E-15   1.935444   0.336751
    2    5   0.011097  -0.011097   0.022193     0.01030871   1.935670  -0.247696
    2    6   0.000000  -0.000000   0.000000   3.780759E-13   1.935444   1.819794
    2    7   0.035460  -0.035460   0.070921      0.1170773   1.938671   0.376753
    2    8   0.000000  -0.000000   0.000000   1.887021E-14   1.935444  -0.079878
    2    9   0.000000  -0.000000   0.000000   3.821211E-14   1.935444   1.902659
    2   10  -0.000000   0.000000  -0.000000   -1.30216E-14   1.935444   0.115235
    3    4   0.000000  -0.000000   0.000000  -4.210234E-14   0.172770   0.336751
    3    5  -0.000000   0.000000  -0.000000  -1.029911E-14   0.172770  -0.247471
    3    6   0.000000   0.000000  -0.000000   1.304213E-14   0.172770   1.819794
    3    7  -0.000000   0.000000  -0.000000   3.923327E-13   0.172770   0.379980
    3    8  -0.000000   0.000000  -0.000000  -3.868361E-13   0.172770  -0.079878
    3    9  -0.000000   0.000000  -0.000000   1.288425E-13   0.172770   1.902659
    3   10  -0.000000   0.000000  -0.000000  -8.024643E-11   0.172770   0.115235
    4    5  -0.000000   0.000000  -0.000000  -1.067817E-14   0.336751  -0.247471
    4    6   0.000000  -0.000000   0.000000  -4.679447E-15   0.336751   1.819794
    4    7  -0.000000   0.000000  -0.000000   3.321233E-12   0.336751   0.379980
    4    8   0.000000  -0.000000   0.000000   1.133668E-13   0.336751  -0.079878
    4    9  -0.014577   0.014577  -0.029154     0.03613062   0.336208   1.903201
    4   10   0.000000   0.000000   0.000000   8.874522E-14   0.336751   0.115235
    5    6   0.000000  -0.000000   0.000000  -3.579658E-15  -0.247471   1.819794
    5    7  -0.892122   0.892122  -1.784244      0.7703195  -1.745361   1.877870
    5    8  -0.000000   0.000000  -0.000000   5.173149E-13  -0.247471  -0.079878
    5    9   0.000000  -0.000000   0.000000  -8.770117E-15  -0.247471   1.902659
    5   10  -0.000000   0.000000  -0.000000   5.468495E-13  -0.247471   0.115235
    6    7   0.000000   0.000000  -0.000000  -7.819902E-16   1.819794   0.379980
    6    8   0.016759  -0.016759   0.033517      0.0158488   1.820385  -0.080469
    6    9   0.000000   0.000000   0.000000  -1.096196E-14   1.819794   1.902659
    6   10  -0.007883   0.007883  -0.015765    -0.00969274   1.819939   0.115089
    7    8   0.000000  -0.000000   0.000000   2.169673E-14   0.379980  -0.079878
    7    9   0.000000  -0.000000   0.000000  -4.670118E-15   0.379980   1.902659
    7   10   0.000000  -0.000000   0.000000   6.913688E-14   0.379980   0.115235
    8    9   0.000000  -0.000000   0.000000  -2.827418E-14  -0.079878   1.902659
    8   10  -0.940374   0.940374  -1.880749     0.07457761  -1.865599   1.900956
    9   10   0.000000  -0.000000   0.000000   5.840569E-15   1.902659   0.115235
 --------------------------------------------------------------------------------

                          END OF FED CALCULATION


                    FCD ELECTRONIC-COUPLING CALCULATION


       Fragment Charges of Ground State with Nuclear Charges
 -----------------------------------------------------
   State         Q(D)        Q(A)          dQ
 -----------------------------------------------------
       0    -0.037589    0.037589   -0.075178
 -----------------------------------------------------

 Within CIS/TDA Excited States:

       Fragment Charges of Singlet Excited State with Nuclear Charges
 -----------------------------------------------------
   State         Q(D)        Q(A)          dQ
 -----------------------------------------------------
       1    -0.033200    0.033200   -0.066399 (  0.008779)
       2    -0.031663    0.031663   -0.063326 (  0.011852)
       3     0.681244   -0.681244    1.362488 (  1.437666)
       4     0.741591   -0.741591    1.483182 (  1.558360)
       5    -0.060319    0.060319   -0.120637 ( -0.045459)
       6    -0.042265    0.042265   -0.084529 ( -0.009351)
       7    -0.077022    0.077022   -0.154045 ( -0.078867)
       8    -0.048979    0.048979   -0.097958 ( -0.022780)
       9    -0.078424    0.078424   -0.156848 ( -0.081670)
      10    -0.056186    0.056186   -0.112371 ( -0.037193)
 -----------------------------------------------------

               Fragment Charges of Transition Densities and
            FCD Couplings Between Ground and Singlet Excited States
 --------------------------------------------------------------------------------
    States     Q12(D)     Q12(A)       dQ12    Coupling(eV)   FCD-dQ1    FCD-dQ2
 --------------------------------------------------------------------------------
    0    1   0.000000   0.000000   0.000000  -1.065025E-12  -0.075178  -0.066399
    0    2  -0.000000  -0.000000   0.000000  -4.889177E-12  -0.075178  -0.063326
    0    3  -0.036151   0.036151  -0.072301       0.362367  -0.078805   1.366115
    0    4   0.000000   0.000000  -0.000000   3.182276E-14  -0.075178   1.483182
    0    5   0.000000  -0.000000   0.000000    1.76904E-12  -0.075178  -0.120637
    0    6   0.000000  -0.000000   0.000000   1.693451E-11  -0.075178  -0.084529
    0    7  -0.000000   0.000000  -0.000000  -6.524892E-13  -0.075178  -0.154045
    0    8   0.000000   0.000000  -0.000000  -4.941989E-12  -0.075178  -0.097958
    0    9   0.000000  -0.000000   0.000000   3.801935E-12  -0.075178  -0.156848
    0   10   0.000000  -0.000000   0.000000   5.213185E-11  -0.075178  -0.112371
 --------------------------------------------------------------------------------

               Fragment Charges of Transition Densities and
            FCD Couplings Between Singlet Excited States
 --------------------------------------------------------------------------------
    States     Q12(D)     Q12(A)       dQ12    Coupling(eV)   FCD-dQ1    FCD-dQ2
 --------------------------------------------------------------------------------
    1    2  -0.000000  -0.000000   0.000000  -1.466396E-13  -0.066399  -0.063326
    1    3  -0.000000  -0.000000  -0.000000   3.619818E-15  -0.066399   1.362488
    1    4   0.000000  -0.000000   0.000000  -8.064149E-15  -0.066399   1.483182
    1    5   0.000000   0.000000  -0.000000  -8.796546E-14  -0.066399  -0.120637
    1    6  -0.019387   0.019387  -0.038774     -0.9795867  -0.035644  -0.115284
    1    7   0.000000  -0.000000   0.000000   8.205393E-13  -0.066399  -0.154045
    1    8   0.009285  -0.009285   0.018570       1.109098  -0.057810  -0.106547
    1    9  -0.000000  -0.000000   0.000000   3.948516E-13  -0.066399  -0.156848
    1   10  -0.007929   0.007929  -0.015859     -0.8689161  -0.061459  -0.117311
    2    3   0.000000   0.000000  -0.000000   7.238637E-15  -0.063326   1.362488
    2    4  -0.000000   0.000000  -0.000000    6.12164E-15  -0.063326   1.483182
    2    5   0.003211  -0.003211   0.006421      0.1108799  -0.062615  -0.121348
    2    6  -0.000000   0.000000  -0.000000  -9.510364E-13  -0.063326  -0.084529
    2    7   0.002938  -0.002938   0.005877      0.1656406  -0.062947  -0.154424
    2    8  -0.000000   0.000000  -0.000000  -5.620209E-13  -0.063326  -0.097958
    2    9   0.000000   0.000000  -0.000000  -2.645671E-13  -0.063326  -0.156848
    2   10  -0.000000   0.000000  -0.000000  -8.376583E-14  -0.063326  -0.112371
    3    4   0.000000  -0.000000   0.000000  -1.815947E-14   1.362488   1.483182
    3    5   0.000000   0.000000  -0.000000  -3.995202E-15   1.362488  -0.120637
    3    6   0.000000  -0.000000   0.000000   1.599408E-14   1.362488  -0.084529
    3    7   0.000000   0.000000   0.000000              0   1.362488  -0.154045
    3    8  -0.000000   0.000000  -0.000000  -3.231764E-14   1.362488  -0.097958
    3    9  -0.000000   0.000000  -0.000000  -1.400598E-13   1.362488  -0.156848
    3   10  -0.000000   0.000000  -0.000000  -2.194562E-12   1.362488  -0.112371
    4    5  -0.000000   0.000000  -0.000000  -7.835554E-15   1.483182  -0.120637
    4    6  -0.000000   0.000000  -0.000000   -7.42127E-15   1.483182  -0.084529
    4    7   0.000000  -0.000000   0.000000   1.186918E-14   1.483182  -0.154045
    4    8   0.000000  -0.000000   0.000000   2.106363E-14   1.483182  -0.097958
    4    9   0.010256  -0.010256   0.020512     0.02428081   1.483438  -0.157104
    4   10   0.000000  -0.000000   0.000000   2.806402E-14   1.483182  -0.112371
    5    6   0.000000  -0.000000   0.000000  -1.470753E-13  -0.120637  -0.084529
    5    7  -0.028931   0.028931  -0.057862     -0.7514507  -0.077117  -0.197566
    5    8  -0.000000  -0.000000   0.000000  -1.730102E-13  -0.120637  -0.097958
    5    9  -0.000000  -0.000000   0.000000   8.642414E-13  -0.120637  -0.156848
    5   10  -0.000000   0.000000  -0.000000   2.953205E-12  -0.120637  -0.112371
    6    7   0.000000   0.000000   0.000000   7.101577E-14  -0.084529  -0.154045
    6    8   0.018020  -0.018020   0.036039      0.4418096  -0.054584  -0.127903
    6    9   0.000000  -0.000000   0.000000   5.181221E-14  -0.084529  -0.156848
    6   10  -0.015441   0.015441  -0.030881     -0.4777862  -0.064576  -0.132324
    7    8   0.000000   0.000000  -0.000000   9.399783E-16  -0.154045  -0.097958
    7    9   0.000000   0.000000   0.000000   4.901336E-13  -0.154045  -0.156848
    7   10   0.000000  -0.000000   0.000000  -9.069941E-14  -0.154045  -0.112371
    8    9   0.000000  -0.000000   0.000000   9.530196E-14  -0.097958  -0.156848
    8   10  -0.009828   0.009828  -0.019656    -0.07011362  -0.084229  -0.126100
    9   10   0.000000  -0.000000   0.000000  -2.668732E-14  -0.156848  -0.112371
 --------------------------------------------------------------------------------

                          END OF FCD CALCULATION


                    STATE-TO-STATE TRANSITION MOMENTS


    Electron Dipole Moments of Ground State
 -----------------------------------------------------
   State     X           Y           Z(a.u.) 
 -----------------------------------------------------
       0    -0.000000   -0.000000   -0.177339
 -----------------------------------------------------

 Within CIS/TDA Excited States:

    Electron Dipole Moments of Singlet Excited State
 -----------------------------------------------------
   State     X           Y           Z(a.u.) 
 -----------------------------------------------------
       1    -0.000000   -0.000000   -0.169800
       2    -0.000000   -0.000000   -0.161209
       3    -0.000000   -0.000000    3.091502
       4    -0.000000   -0.000000    3.403198
       5    -0.000000    0.000000   -0.293889
       6    -0.000000   -0.000000   -0.218400
       7    -0.000000   -0.000000   -0.351625
       8    -0.000000   -0.000000   -0.254638
       9    -0.000000   -0.000000   -0.368911
      10    -0.000000    0.000000   -0.277564
 -----------------------------------------------------

                Transition Moments Between Ground and Singlet Excited States
 --------------------------------------------------------------------------------
    States   X          Y          Z           Strength(a.u.)
 --------------------------------------------------------------------------------
    0    1  -0.000000   0.152518   0.000000    0.003691851
    0    2   0.037131   0.000000   0.000000   0.0002260316
    0    3   0.000000  -0.000000  -0.143405    0.003648685
    0    4   0.000000  -0.000000   0.000000   9.079139E-29
    0    5   0.215691   0.000000   0.000000    0.008783082
    0    6   0.000000   1.982745  -0.000000      0.8177169
    0    7  -2.575642  -0.000000  -0.000000       1.506666
    0    8  -0.000000   0.063960   0.000000    0.000941004
    0    9   0.000000   0.000000   0.000000   3.477461E-28
    0   10  -0.000000  -0.112620   0.000000    0.002963853
 --------------------------------------------------------------------------------

                Transition Moments Between Singlet Excited States
 --------------------------------------------------------------------------------
    States   X          Y          Z           Strength(a.u.)
 --------------------------------------------------------------------------------
    1    2  -0.000000  -0.000000  -0.000000   5.132376E-31
    1    3   0.000000   0.644969  -0.000000    0.007783597
    1    4   0.427224  -0.000000  -0.000000    0.004886468
    1    5  -0.000000  -0.000000  -0.000000   6.665226E-30
    1    6  -0.000000  -0.000000  -0.104570   0.0005390185
    1    7  -0.000000  -0.000000   0.000000   2.424188E-29
    1    8   0.000000  -0.000000   0.044967    0.000144197
    1    9   0.004764  -0.000000   0.000000   1.687566E-06
    1   10   0.000000  -0.000000  -0.040213   0.0001212356
    2    3  -0.201505   0.000000  -0.000000   0.0005472083
    2    4  -0.000000   0.377546  -0.000000    0.003069978
    2    5  -0.000000  -0.000000   0.011353   3.202437E-06
    2    6  -0.000000   0.000000   0.000000   3.356186E-30
    2    7   0.000000   0.000000   0.022070   3.077059E-05
    2    8   0.000000   0.000000   0.000000    3.86406E-29
    2    9   0.000000  -0.008935   0.000000   5.517714E-06
    2   10   0.000000   0.000000  -0.000000   1.262067E-26
    3    4  -0.000000  -0.000000   0.000000   1.752042E-29
    3    5  -0.320610  -0.000000  -0.000000    0.001168745
    3    6  -0.000000   0.474245   0.000000    0.006878127
    3    7   0.176464  -0.000000  -0.000000    0.001547449
    3    8   0.000000   0.354467  -0.000000    0.006609359
    3    9   0.000000  -0.000000  -0.000000   1.928901E-27
    3   10   0.000000   0.290148  -0.000000    0.004736434
    4    5   0.000000  -0.496248  -0.000000   0.0008149406
    4    6  -0.355659  -0.000000   0.000000    0.002848758
    4    7   0.000000   0.237030   0.000000    0.002339088
    4    8  -0.260807  -0.000000   0.000000    0.003029733
    4    9   0.000000  -0.000000   0.043744    9.10411E-05
    4   10  -0.219064  -0.000000   0.000000    0.002313124
    5    6   0.000000  -0.000000  -0.000000   4.066033E-30
    5    7   0.000000  -0.000000  -0.112078   0.0004814075
    5    8   0.000000  -0.000000  -0.000000   1.014057E-28
    5    9   0.000000   0.067044   0.000000   0.0001989798
    5   10   0.000000  -0.000000  -0.000000   4.902135E-26
    6    7   0.000000  -0.000000  -0.000000   1.900275E-30
    6    8  -0.000000   0.000000   0.078874   0.0001369937
    6    9  -0.030816  -0.000000   0.000000   2.379396E-05
    6   10   0.000000  -0.000000  -0.058387   8.754386E-05
    7    8   0.000000   0.000000  -0.000000   1.143003E-29
    7    9   0.000000   0.026844   0.000000   4.283313E-06
    7   10   0.000000   0.000000   0.000000   5.104369E-28
    8    9  -0.056837   0.000000   0.000000   9.805932E-06
    8   10   0.000000   0.000000  -0.041109    6.18369E-06
    9   10   0.027246   0.000000   0.000000   4.629444E-07
 --------------------------------------------------------------------------------

                    END OF TRANSITION MOMEMT CALCULATION

 STSman time:  CPU 0.14 s  wall 0.14 s

 =====================================
    Mulliken & Loewdin analysis of   
    e-/h+ contributions to (Delta)P  
 =====================================
  Mulliken analysis of TDA State    1
 -------------------------------------
   Atom      e-      h+     (Del)q    
 -------------------------------------
      1  -0.0017   0.0072   0.0055
      2  -0.0023   0.0006  -0.0017
      3  -0.0023   0.0006  -0.0017
      4  -0.0017   0.0072   0.0055
      5  -0.0023   0.0006  -0.0017
      6  -0.0023   0.0006  -0.0017
      7  -0.1920   0.1365  -0.0554
      8  -0.1508   0.1774   0.0266
      9  -0.1508   0.1774   0.0266
     10  -0.1920   0.1365  -0.0554
     11  -0.1508   0.1774   0.0266
     12  -0.1508   0.1774   0.0266
     13  -0.0001   0.0000  -0.0000
     14  -0.0001   0.0001   0.0000
     15  -0.0001   0.0001   0.0000
     16  -0.0001   0.0000  -0.0000
     17  -0.0001   0.0001   0.0000
     18  -0.0001   0.0001   0.0000
  Sum:   -1.0000   1.0000  -0.0000
 -------------------------------------
  Loewdin analysis of TDA State    1
 -------------------------------------
   Atom      e-      h+     (Del)q    
 -------------------------------------
      1  -0.0046   0.0105   0.0059
      2  -0.0021   0.0012  -0.0008
      3  -0.0021   0.0012  -0.0008
      4  -0.0046   0.0105   0.0059
      5  -0.0021   0.0012  -0.0008
      6  -0.0021   0.0012  -0.0008
      7  -0.1937   0.1343  -0.0593
      8  -0.1487   0.1762   0.0275
      9  -0.1487   0.1762   0.0275
     10  -0.1937   0.1343  -0.0593
     11  -0.1487   0.1762   0.0275
     12  -0.1487   0.1762   0.0275
     13  -0.0001   0.0000  -0.0000
     14  -0.0000   0.0001   0.0000
     15  -0.0000   0.0001   0.0000
     16  -0.0001   0.0000  -0.0000
     17  -0.0000   0.0001   0.0000
     18  -0.0000   0.0001   0.0000
  Sum:   -1.0000   1.0000  -0.0000
 -------------------------------------
  Mulliken analysis of TDA State    2
 -------------------------------------
   Atom      e-      h+     (Del)q    
 -------------------------------------
      1  -0.0015   0.0083   0.0068
      2  -0.0025   0.0006  -0.0019
      3  -0.0025   0.0006  -0.0019
      4  -0.0015   0.0083   0.0068
      5  -0.0025   0.0006  -0.0019
      6  -0.0025   0.0006  -0.0019
      7  -0.1688   0.1665  -0.0023
      8  -0.1607   0.1610   0.0003
      9  -0.1607   0.1610   0.0003
     10  -0.1688   0.1665  -0.0023
     11  -0.1607   0.1610   0.0003
     12  -0.1607   0.1610   0.0003
     13  -0.0011   0.0007  -0.0004
     14  -0.0010   0.0006  -0.0004
     15  -0.0010   0.0006  -0.0004
     16  -0.0011   0.0007  -0.0004
     17  -0.0010   0.0006  -0.0004
     18  -0.0010   0.0006  -0.0004
  Sum:   -1.0000   1.0000  -0.0000
 -------------------------------------
  Loewdin analysis of TDA State    2
 -------------------------------------
   Atom      e-      h+     (Del)q    
 -------------------------------------
      1  -0.0048   0.0120   0.0072
      2  -0.0022   0.0012  -0.0010
      3  -0.0022   0.0012  -0.0010
      4  -0.0048   0.0120   0.0072
      5  -0.0022   0.0012  -0.0010
      6  -0.0022   0.0012  -0.0010
      7  -0.1707   0.1638  -0.0069
      8  -0.1590   0.1598   0.0008
      9  -0.1590   0.1598   0.0008
     10  -0.1707   0.1638  -0.0069
     11  -0.1590   0.1598   0.0008
     12  -0.1590   0.1598   0.0008
     13  -0.0007   0.0007   0.0000
     14  -0.0007   0.0007   0.0000
     15  -0.0007   0.0007   0.0000
     16  -0.0007   0.0007   0.0000
     17  -0.0007   0.0007   0.0000
     18  -0.0007   0.0007   0.0000
  Sum:   -1.0000   1.0000  -0.0000
 -------------------------------------
  Mulliken analysis of TDA State    3
 -------------------------------------
   Atom      e-      h+     (Del)q    
 -------------------------------------
      1  -0.0138   0.4068   0.3930
      2  -0.0175   0.0007  -0.0168
      3  -0.0175   0.0007  -0.0168
      4  -0.0138   0.4068   0.3930
      5  -0.0175   0.0007  -0.0168
      6  -0.0175   0.0007  -0.0168
      7  -0.3006   0.0228  -0.2778
      8  -0.0748   0.0344  -0.0404
      9  -0.0748   0.0344  -0.0404
     10  -0.3006   0.0228  -0.2778
     11  -0.0748   0.0344  -0.0404
     12  -0.0748   0.0344  -0.0404
     13  -0.0005   0.0001  -0.0004
     14  -0.0003   0.0001  -0.0002
     15  -0.0003   0.0001  -0.0002
     16  -0.0005   0.0001  -0.0004
     17  -0.0003   0.0001  -0.0002
     18  -0.0003   0.0001  -0.0002
  Sum:   -1.0000   1.0000   0.0000
 -------------------------------------
  Loewdin analysis of TDA State    3
 -------------------------------------
   Atom      e-      h+     (Del)q    
 -------------------------------------
      1  -0.0213   0.4018   0.3805
      2  -0.0115   0.0007  -0.0108
      3  -0.0115   0.0007  -0.0108
      4  -0.0213   0.4018   0.3805
      5  -0.0115   0.0007  -0.0108
      6  -0.0115   0.0007  -0.0108
      7  -0.3107   0.0256  -0.2851
      8  -0.0720   0.0354  -0.0366
      9  -0.0720   0.0354  -0.0366
     10  -0.3107   0.0256  -0.2851
     11  -0.0720   0.0354  -0.0366
     12  -0.0720   0.0354  -0.0366
     13  -0.0004   0.0002  -0.0002
     14  -0.0003   0.0001  -0.0002
     15  -0.0003   0.0001  -0.0002
     16  -0.0004   0.0002  -0.0002
     17  -0.0003   0.0001  -0.0002
     18  -0.0003   0.0001  -0.0002
  Sum:   -1.0000   1.0000   0.0000
 -------------------------------------
  Mulliken analysis of TDA State    4
 -------------------------------------
   Atom      e-      h+     (Del)q    
 -------------------------------------
      1   0.0018   0.4015   0.4032
      2  -0.0074   0.0006  -0.0068
      3  -0.0074   0.0006  -0.0068
      4   0.0018   0.4015   0.4032
      5  -0.0074   0.0006  -0.0068
      6  -0.0074   0.0006  -0.0068
      7  -0.0011   0.0233   0.0222
      8  -0.2425   0.0367  -0.2058
      9  -0.2425   0.0367  -0.2058
     10  -0.0011   0.0233   0.0222
     11  -0.2425   0.0367  -0.2058
     12  -0.2425   0.0367  -0.2058
     13  -0.0000   0.0001   0.0001
     14  -0.0003   0.0002  -0.0001
     15  -0.0003   0.0002  -0.0001
     16  -0.0000   0.0001   0.0001
     17  -0.0003   0.0002  -0.0001
     18  -0.0003   0.0002  -0.0001
  Sum:   -1.0000   1.0000  -0.0000
 -------------------------------------
  Loewdin analysis of TDA State    4
 -------------------------------------
   Atom      e-      h+     (Del)q    
 -------------------------------------
      1  -0.0097   0.3969   0.3873
      2  -0.0047   0.0006  -0.0040
      3  -0.0047   0.0006  -0.0040
      4  -0.0097   0.3969   0.3873
      5  -0.0047   0.0006  -0.0040
      6  -0.0047   0.0006  -0.0040
      7  -0.0009   0.0261   0.0253
      8  -0.2398   0.0376  -0.2022
      9  -0.2398   0.0376  -0.2022
     10  -0.0009   0.0261   0.0253
     11  -0.2398   0.0376  -0.2022
     12  -0.2398   0.0376  -0.2022
     13  -0.0000   0.0001   0.0001
     14  -0.0002   0.0002  -0.0000
     15  -0.0002   0.0002  -0.0000
     16  -0.0000   0.0001   0.0001
     17  -0.0002   0.0002  -0.0000
     18  -0.0002   0.0002  -0.0000
  Sum:   -1.0000   1.0000  -0.0000
 -------------------------------------
  Mulliken analysis of TDA State    5
 -------------------------------------
   Atom      e-      h+     (Del)q    
 -------------------------------------
      1  -0.2736   0.2685  -0.0051
      2  -0.0065   0.0034  -0.0032
      3  -0.0065   0.0034  -0.0032
      4  -0.2736   0.2685  -0.0051
      5  -0.0065   0.0034  -0.0032
      6  -0.0065   0.0034  -0.0032
      7  -0.0721   0.0709  -0.0012
      8  -0.0695   0.0761   0.0065
      9  -0.0695   0.0761   0.0065
     10  -0.0721   0.0709  -0.0012
     11  -0.0695   0.0761   0.0065
     12  -0.0695   0.0761   0.0065
     13  -0.0014   0.0008  -0.0007
     14  -0.0004   0.0004   0.0000
     15  -0.0004   0.0004   0.0000
     16  -0.0014   0.0008  -0.0007
     17  -0.0004   0.0004   0.0000
     18  -0.0004   0.0004   0.0000
  Sum:   -1.0000   1.0000  -0.0000
 -------------------------------------
  Loewdin analysis of TDA State    5
 -------------------------------------
   Atom      e-      h+     (Del)q    
 -------------------------------------
      1  -0.2711   0.2647  -0.0064
      2  -0.0044   0.0037  -0.0008
      3  -0.0044   0.0037  -0.0008
      4  -0.2711   0.2647  -0.0064
      5  -0.0044   0.0037  -0.0008
      6  -0.0044   0.0037  -0.0008
      7  -0.0772   0.0725  -0.0047
      8  -0.0705   0.0769   0.0065
      9  -0.0705   0.0769   0.0065
     10  -0.0772   0.0725  -0.0047
     11  -0.0705   0.0769   0.0065
     12  -0.0705   0.0769   0.0065
     13  -0.0012   0.0008  -0.0004
     14  -0.0003   0.0005   0.0001
     15  -0.0003   0.0005   0.0001
     16  -0.0012   0.0008  -0.0004
     17  -0.0003   0.0005   0.0001
     18  -0.0003   0.0005   0.0001
  Sum:   -1.0000   1.0000  -0.0000
 -------------------------------------
  Mulliken analysis of TDA State    6
 -------------------------------------
   Atom      e-      h+     (Del)q    
 -------------------------------------
      1  -0.0054   0.0155   0.0101
      2  -0.0091   0.0030  -0.0062
      3  -0.0091   0.0030  -0.0062
      4  -0.0054   0.0155   0.0101
      5  -0.0091   0.0030  -0.0062
      6  -0.0091   0.0030  -0.0062
      7  -0.1336   0.1827   0.0492
      8  -0.1679   0.1452  -0.0227
      9  -0.1679   0.1452  -0.0227
     10  -0.1336   0.1827   0.0492
     11  -0.1679   0.1452  -0.0227
     12  -0.1679   0.1452  -0.0227
     13  -0.0003   0.0017   0.0014
     14  -0.0033   0.0019  -0.0014
     15  -0.0033   0.0019  -0.0014
     16  -0.0003   0.0017   0.0014
     17  -0.0033   0.0019  -0.0014
     18  -0.0033   0.0019  -0.0014
  Sum:   -1.0000   1.0000  -0.0000
 -------------------------------------
  Loewdin analysis of TDA State    6
 -------------------------------------
   Atom      e-      h+     (Del)q    
 -------------------------------------
      1  -0.0127   0.0187   0.0060
      2  -0.0062   0.0035  -0.0028
      3  -0.0062   0.0035  -0.0028
      4  -0.0127   0.0187   0.0060
      5  -0.0062   0.0035  -0.0028
      6  -0.0062   0.0035  -0.0028
      7  -0.1337   0.1799   0.0463
      8  -0.1683   0.1442  -0.0240
      9  -0.1683   0.1442  -0.0240
     10  -0.1337   0.1799   0.0463
     11  -0.1683   0.1442  -0.0240
     12  -0.1683   0.1442  -0.0240
     13  -0.0004   0.0018   0.0014
     14  -0.0021   0.0020  -0.0001
     15  -0.0021   0.0020  -0.0001
     16  -0.0004   0.0018   0.0014
     17  -0.0021   0.0020  -0.0001
     18  -0.0021   0.0020  -0.0001
  Sum:   -1.0000   1.0000  -0.0000
 -------------------------------------
  Mulliken analysis of TDA State    7
 -------------------------------------
   Atom      e-      h+     (Del)q    
 -------------------------------------
      1  -0.1935   0.1873  -0.0063
      2  -0.0094   0.0027  -0.0067
      3  -0.0094   0.0027  -0.0067
      4  -0.1935   0.1873  -0.0063
      5  -0.0094   0.0027  -0.0067
      6  -0.0094   0.0027  -0.0067
      7  -0.0824   0.0938   0.0115
      8  -0.0981   0.1041   0.0060
      9  -0.0981   0.1041   0.0060
     10  -0.0824   0.0938   0.0115
     11  -0.0981   0.1041   0.0060
     12  -0.0981   0.1041   0.0060
     13  -0.0047   0.0016  -0.0031
     14  -0.0022   0.0019  -0.0003
     15  -0.0022   0.0019  -0.0003
     16  -0.0047   0.0016  -0.0031
     17  -0.0022   0.0019  -0.0003
     18  -0.0022   0.0019  -0.0003
  Sum:   -1.0000   1.0000  -0.0000
 -------------------------------------
  Loewdin analysis of TDA State    7
 -------------------------------------
   Atom      e-      h+     (Del)q    
 -------------------------------------
      1  -0.1936   0.1863  -0.0073
      2  -0.0066   0.0029  -0.0037
      3  -0.0066   0.0029  -0.0037
      4  -0.1936   0.1863  -0.0073
      5  -0.0066   0.0029  -0.0037
      6  -0.0066   0.0029  -0.0037
      7  -0.0925   0.0942   0.0016
      8  -0.0972   0.1040   0.0068
      9  -0.0972   0.1040   0.0068
     10  -0.0925   0.0942   0.0016
     11  -0.0972   0.1040   0.0068
     12  -0.0972   0.1040   0.0068
     13  -0.0031   0.0017  -0.0014
     14  -0.0016   0.0020   0.0004
     15  -0.0016   0.0020   0.0004
     16  -0.0031   0.0017  -0.0014
     17  -0.0016   0.0020   0.0004
     18  -0.0016   0.0020   0.0004
  Sum:   -1.0000   1.0000  -0.0000
 -------------------------------------
  Mulliken analysis of TDA State    8
 -------------------------------------
   Atom      e-      h+     (Del)q    
 -------------------------------------
      1  -0.0410   0.2501   0.2091
      2  -0.1109   0.0035  -0.1074
      3  -0.1109   0.0035  -0.1074
      4  -0.0410   0.2501   0.2091
      5  -0.1109   0.0035  -0.1074
      6  -0.1109   0.0035  -0.1074
      7  -0.0043   0.0095   0.0052
      8   0.0021   0.1165   0.1186
      9   0.0021   0.1165   0.1186
     10  -0.0043   0.0095   0.0052
     11   0.0021   0.1165   0.1186
     12   0.0021   0.1165   0.1186
     13  -0.0424   0.0000  -0.0424
     14  -0.0973   0.0002  -0.0971
     15  -0.0973   0.0002  -0.0971
     16  -0.0424   0.0000  -0.0424
     17  -0.0973   0.0002  -0.0971
     18  -0.0973   0.0002  -0.0971
  Sum:   -1.0000   1.0000  -0.0000
 -------------------------------------
  Loewdin analysis of TDA State    8
 -------------------------------------
   Atom      e-      h+     (Del)q    
 -------------------------------------
      1  -0.0929   0.2465   0.1536
      2  -0.0820   0.0038  -0.0782
      3  -0.0820   0.0038  -0.0782
      4  -0.0929   0.2465   0.1536
      5  -0.0820   0.0038  -0.0782
      6  -0.0820   0.0038  -0.0782
      7  -0.0174   0.0119  -0.0055
      8  -0.0376   0.1168   0.0792
      9  -0.0376   0.1168   0.0792
     10  -0.0174   0.0119  -0.0055
     11  -0.0376   0.1168   0.0792
     12  -0.0376   0.1168   0.0792
     13  -0.0294   0.0000  -0.0294
     14  -0.0606   0.0002  -0.0604
     15  -0.0606   0.0002  -0.0604
     16  -0.0294   0.0000  -0.0294
     17  -0.0606   0.0002  -0.0604
     18  -0.0606   0.0002  -0.0604
  Sum:   -1.0000   1.0000  -0.0000
 -------------------------------------
  Mulliken analysis of TDA State    9
 -------------------------------------
   Atom      e-      h+     (Del)q    
 -------------------------------------
      1  -0.0195   0.0011  -0.0184
      2  -0.0014   0.0004  -0.0010
      3  -0.0014   0.0004  -0.0010
      4  -0.0195   0.0011  -0.0184
      5  -0.0014   0.0004  -0.0010
      6  -0.0014   0.0004  -0.0010
      7  -0.2327   0.1463  -0.0865
      8  -0.1223   0.1305   0.0082
      9  -0.1223   0.1305   0.0082
     10  -0.2327   0.1463  -0.0865
     11  -0.1223   0.1305   0.0082
     12  -0.1223   0.1305   0.0082
     13   0.0000   0.0152   0.0152
     14  -0.0001   0.0377   0.0376
     15  -0.0001   0.0377   0.0376
     16   0.0000   0.0152   0.0152
     17  -0.0001   0.0377   0.0376
     18  -0.0001   0.0377   0.0376
  Sum:   -1.0000   1.0000   0.0000
 -------------------------------------
  Loewdin analysis of TDA State    9
 -------------------------------------
   Atom      e-      h+     (Del)q    
 -------------------------------------
      1  -0.0209   0.0011  -0.0198
      2  -0.0014   0.0004  -0.0009
      3  -0.0014   0.0004  -0.0009
      4  -0.0209   0.0011  -0.0198
      5  -0.0014   0.0004  -0.0009
      6  -0.0014   0.0004  -0.0009
      7  -0.2343   0.1448  -0.0894
      8  -0.1209   0.1277   0.0068
      9  -0.1209   0.1277   0.0068
     10  -0.2343   0.1448  -0.0894
     11  -0.1209   0.1277   0.0068
     12  -0.1209   0.1277   0.0068
     13  -0.0000   0.0165   0.0165
     14  -0.0001   0.0406   0.0405
     15  -0.0001   0.0406   0.0405
     16  -0.0000   0.0165   0.0165
     17  -0.0001   0.0406   0.0405
     18  -0.0001   0.0406   0.0405
  Sum:   -1.0000   1.0000   0.0000
 -------------------------------------
  Mulliken analysis of TDA State   10
 -------------------------------------
   Atom      e-      h+     (Del)q    
 -------------------------------------
      1  -0.0502   0.2172   0.1669
      2  -0.0950   0.0069  -0.0881
      3  -0.0950   0.0069  -0.0881
      4  -0.0502   0.2172   0.1669
      5  -0.0950   0.0069  -0.0881
      6  -0.0950   0.0069  -0.0881
      7  -0.0034   0.0057   0.0023
      8  -0.0026   0.1315   0.1289
      9  -0.0026   0.1315   0.1289
     10  -0.0034   0.0057   0.0023
     11  -0.0026   0.1315   0.1289
     12  -0.0026   0.1315   0.1289
     13  -0.0554   0.0000  -0.0554
     14  -0.0979   0.0002  -0.0977
     15  -0.0979   0.0002  -0.0977
     16  -0.0554   0.0000  -0.0554
     17  -0.0979   0.0002  -0.0977
     18  -0.0979   0.0002  -0.0977
  Sum:   -1.0000   1.0000  -0.0000
 -------------------------------------
  Loewdin analysis of TDA State   10
 -------------------------------------
   Atom      e-      h+     (Del)q    
 -------------------------------------
      1  -0.0949   0.2136   0.1187
      2  -0.0710   0.0072  -0.0637
      3  -0.0710   0.0072  -0.0637
      4  -0.0949   0.2136   0.1187
      5  -0.0710   0.0072  -0.0637
      6  -0.0710   0.0072  -0.0637
      7  -0.0230   0.0080  -0.0150
      8  -0.0376   0.1318   0.0942
      9  -0.0376   0.1318   0.0942
     10  -0.0230   0.0080  -0.0150
     11  -0.0376   0.1318   0.0942
     12  -0.0376   0.1318   0.0942
     13  -0.0383   0.0000  -0.0383
     14  -0.0634   0.0002  -0.0631
     15  -0.0634   0.0002  -0.0631
     16  -0.0383   0.0000  -0.0383
     17  -0.0634   0.0002  -0.0631
     18  -0.0634   0.0002  -0.0631
  Sum:   -1.0000   1.0000  -0.0000
 -------------------------------------
 
 --------------------------------------------------------------
             Orbital Energies (a.u.) and Symmetries
 --------------------------------------------------------------
 
 Alpha MOs, Restricted
 -- Occupied --                  
-11.236 -11.236 -11.232 -11.232 -11.230 -11.230 -11.208 -11.206
  1 A1    1 B1    1 B2    2 A1    1 A2    2 B1    3 A1    3 B1                 
 -1.161  -1.021  -1.018  -1.010  -0.825  -0.825  -0.771  -0.715
  4 A1    4 B1    2 B2    5 A1    2 A2    6 A1    5 B1    7 A1                 
 -0.640  -0.624  -0.616  -0.590  -0.588  -0.565  -0.514  -0.488
  6 B1    3 B2    4 B2    7 B1    5 B2    8 A1    9 A1   10 A1                 
 -0.488  -0.481  -0.335  -0.332  -0.321
  3 A2    4 A2    8 B1    6 B2   11 A1                                         
 -- Virtual --                   
  0.142   0.150   0.210   0.228   0.277   0.277   0.288   0.315
 12 A1    5 A2    9 B1   13 A1    7 B2   10 B1   14 A1    8 B2                 
  0.322   0.322   0.330   0.338   0.364   0.418   0.472   0.474
  6 A2   11 B1   15 A1   12 B1   13 B1    7 A2   16 A1    8 A2                 
  0.501   0.501   0.520   0.674   0.688   0.743   0.777   0.786
  9 B2   14 B1   15 B1   10 B2   17 A1   18 A1    9 A2   11 B2                 
  0.788   0.806   0.831   0.844   0.862   0.883   0.883   0.895
 16 B1   19 A1   17 B1   20 A1   12 B2   21 A1   10 A2   22 A1                 
  0.927   0.948   0.954   0.970   1.018   1.018   1.134   1.139
 18 B1   19 B1   11 A2   23 A1   13 B2   20 B1   12 A2   24 A1                 
  1.139   1.156   1.173   1.179   1.194   1.216   1.243   1.263
 21 B1   22 B1   14 B2   13 A2   23 B1   15 B2   25 A1   26 A1                 
  1.263   1.286   1.305   1.326   1.344   1.403   1.453   1.471
 24 B1   14 A2   16 B2   25 B1   15 A2   27 A1   26 B1   17 B2                 
  1.520   1.543   1.654   1.750   1.829   2.037   2.200
 28 A1   27 B1   16 A2   29 A1   17 A2   28 B1   29 B1                         
 
 Beta MOs, Restricted
 -- Occupied --                  
-11.236 -11.236 -11.232 -11.232 -11.230 -11.230 -11.208 -11.206
  1 A1    1 B1    1 B2    2 A1    1 A2    2 B1    3 A1    3 B1                 
 -1.161  -1.021  -1.018  -1.010  -0.825  -0.825  -0.771  -0.715
  4 A1    4 B1    2 B2    5 A1    2 A2    6 A1    5 B1    7 A1                 
 -0.640  -0.624  -0.616  -0.590  -0.588  -0.565  -0.514  -0.488
  6 B1    3 B2    4 B2    7 B1    5 B2    8 A1    9 A1   10 A1                 
 -0.488  -0.481  -0.335  -0.332  -0.321
  3 A2    4 A2    8 B1    6 B2   11 A1                                         
 -- Virtual --                   
  0.142   0.150   0.210   0.228   0.277   0.277   0.288   0.315
 12 A1    5 A2    9 B1   13 A1    7 B2   10 B1   14 A1    8 B2                 
  0.322   0.322   0.330   0.338   0.364   0.418   0.472   0.474
  6 A2   11 B1   15 A1   12 B1   13 B1    7 A2   16 A1    8 A2                 
  0.501   0.501   0.520   0.674   0.688   0.743   0.777   0.786
  9 B2   14 B1   15 B1   10 B2   17 A1   18 A1    9 A2   11 B2                 
  0.788   0.806   0.831   0.844   0.862   0.883   0.883   0.895
 16 B1   19 A1   17 B1   20 A1   12 B2   21 A1   10 A2   22 A1                 
  0.927   0.948   0.954   0.970   1.018   1.018   1.134   1.139
 18 B1   19 B1   11 A2   23 A1   13 B2   20 B1   12 A2   24 A1                 
  1.139   1.156   1.173   1.179   1.194   1.216   1.243   1.263
 21 B1   22 B1   14 B2   13 A2   23 B1   15 B2   25 A1   26 A1                 
  1.263   1.286   1.305   1.326   1.344   1.403   1.453   1.471
 24 B1   14 A2   16 B2   25 B1   15 A2   27 A1   26 B1   17 B2                 
  1.520   1.543   1.654   1.750   1.829   2.037   2.200
 28 A1   27 B1   16 A2   29 A1   17 A2   28 B1   29 B1                         
 --------------------------------------------------------------
 
          Ground-State Mulliken Net Atomic Charges

     Atom                 Charge (a.u.)
  ----------------------------------------
      1 C                    -0.329058
      2 H                     0.155132
      3 H                     0.155132
      4 C                    -0.329058
      5 H                     0.155132
      6 H                     0.155132
      7 C                    -0.190324
      8 C                    -0.192054
      9 C                    -0.192054
     10 C                    -0.190324
     11 C                    -0.192054
     12 C                    -0.192054
     13 H                     0.199713
     14 H                     0.196757
     15 H                     0.196757
     16 H                     0.199713
     17 H                     0.196757
     18 H                     0.196757
  ----------------------------------------
  Sum of atomic charges =     0.000000

         TDA Excited State  1:  Mulliken Net Atomic Charges

     Atom                 Charge (a.u.)
  ----------------------------------------
      1 C                    -0.323563
      2 H                     0.153482
      3 H                     0.153482
      4 C                    -0.323563
      5 H                     0.153482
      6 H                     0.153482
      7 C                    -0.245772
      8 C                    -0.165417
      9 C                    -0.165417
     10 C                    -0.245772
     11 C                    -0.165417
     12 C                    -0.165417
     13 H                     0.199673
     14 H                     0.196766
     15 H                     0.196766
     16 H                     0.199673
     17 H                     0.196766
     18 H                     0.196766
  ----------------------------------------
  Sum of atomic charges =     0.000000

         TDA Excited State  2:  Mulliken Net Atomic Charges

     Atom                 Charge (a.u.)
  ----------------------------------------
      1 C                    -0.322293
      2 H                     0.153231
      3 H                     0.153231
      4 C                    -0.322293
      5 H                     0.153231
      6 H                     0.153231
      7 C                    -0.192673
      8 C                    -0.191787
      9 C                    -0.191787
     10 C                    -0.192673
     11 C                    -0.191787
     12 C                    -0.191787
     13 H                     0.199286
     14 H                     0.196397
     15 H                     0.196397
     16 H                     0.199286
     17 H                     0.196397
     18 H                     0.196397
  ----------------------------------------
  Sum of atomic charges =     0.000000

         TDA Excited State  3:  Mulliken Net Atomic Charges

     Atom                 Charge (a.u.)
  ----------------------------------------
      1 C                     0.063952
      2 H                     0.138335
      3 H                     0.138335
      4 C                     0.063952
      5 H                     0.138335
      6 H                     0.138335
      7 C                    -0.468145
      8 C                    -0.232445
      9 C                    -0.232445
     10 C                    -0.468145
     11 C                    -0.232445
     12 C                    -0.232445
     13 H                     0.199350
     14 H                     0.196532
     15 H                     0.196532
     16 H                     0.199350
     17 H                     0.196532
     18 H                     0.196532
  ----------------------------------------
  Sum of atomic charges =     0.000000

         TDA Excited State  4:  Mulliken Net Atomic Charges

     Atom                 Charge (a.u.)
  ----------------------------------------
      1 C                     0.074187
      2 H                     0.148304
      3 H                     0.148304
      4 C                     0.074187
      5 H                     0.148304
      6 H                     0.148304
      7 C                    -0.168087
      8 C                    -0.397877
      9 C                    -0.397877
     10 C                    -0.168087
     11 C                    -0.397877
     12 C                    -0.397877
     13 H                     0.199768
     14 H                     0.196639
     15 H                     0.196639
     16 H                     0.199768
     17 H                     0.196639
     18 H                     0.196639
  ----------------------------------------
  Sum of atomic charges =     0.000000

         TDA Excited State  5:  Mulliken Net Atomic Charges

     Atom                 Charge (a.u.)
  ----------------------------------------
      1 C                    -0.334109
      2 H                     0.151975
      3 H                     0.151975
      4 C                    -0.334109
      5 H                     0.151975
      6 H                     0.151975
      7 C                    -0.191479
      8 C                    -0.185512
      9 C                    -0.185512
     10 C                    -0.191479
     11 C                    -0.185512
     12 C                    -0.185512
     13 H                     0.199055
     14 H                     0.196805
     15 H                     0.196805
     16 H                     0.199055
     17 H                     0.196805
     18 H                     0.196805
  ----------------------------------------
  Sum of atomic charges =     0.000000

         TDA Excited State  6:  Mulliken Net Atomic Charges

     Atom                 Charge (a.u.)
  ----------------------------------------
      1 C                    -0.319002
      2 H                     0.148935
      3 H                     0.148935
      4 C                    -0.319002
      5 H                     0.148935
      6 H                     0.148935
      7 C                    -0.141142
      8 C                    -0.214801
      9 C                    -0.214801
     10 C                    -0.141142
     11 C                    -0.214801
     12 C                    -0.214801
     13 H                     0.201145
     14 H                     0.195366
     15 H                     0.195366
     16 H                     0.201145
     17 H                     0.195366
     18 H                     0.195366
  ----------------------------------------
  Sum of atomic charges =     0.000000

         TDA Excited State  7:  Mulliken Net Atomic Charges

     Atom                 Charge (a.u.)
  ----------------------------------------
      1 C                    -0.335333
      2 H                     0.148411
      3 H                     0.148411
      4 C                    -0.335333
      5 H                     0.148411
      6 H                     0.148411
      7 C                    -0.178863
      8 C                    -0.186097
      9 C                    -0.186097
     10 C                    -0.178863
     11 C                    -0.186097
     12 C                    -0.186097
     13 H                     0.196595
     14 H                     0.196487
     15 H                     0.196487
     16 H                     0.196595
     17 H                     0.196487
     18 H                     0.196487
  ----------------------------------------
  Sum of atomic charges =     0.000000

         TDA Excited State  8:  Mulliken Net Atomic Charges

     Atom                 Charge (a.u.)
  ----------------------------------------
      1 C                    -0.119937
      2 H                     0.047724
      3 H                     0.047724
      4 C                    -0.119937
      5 H                     0.047724
      6 H                     0.047724
      7 C                    -0.185107
      8 C                    -0.073477
      9 C                    -0.073477
     10 C                    -0.185107
     11 C                    -0.073477
     12 C                    -0.073477
     13 H                     0.157286
     14 H                     0.099632
     15 H                     0.099632
     16 H                     0.157286
     17 H                     0.099632
     18 H                     0.099632
  ----------------------------------------
  Sum of atomic charges =     0.000000

         TDA Excited State  9:  Mulliken Net Atomic Charges

     Atom                 Charge (a.u.)
  ----------------------------------------
      1 C                    -0.347468
      2 H                     0.154128
      3 H                     0.154128
      4 C                    -0.347468
      5 H                     0.154128
      6 H                     0.154128
      7 C                    -0.276813
      8 C                    -0.183849
      9 C                    -0.183849
     10 C                    -0.276813
     11 C                    -0.183849
     12 C                    -0.183849
     13 H                     0.214927
     14 H                     0.234398
     15 H                     0.234398
     16 H                     0.214927
     17 H                     0.234398
     18 H                     0.234398
  ----------------------------------------
  Sum of atomic charges =     0.000000

         TDA Excited State 10:  Mulliken Net Atomic Charges

     Atom                 Charge (a.u.)
  ----------------------------------------
      1 C                    -0.162143
      2 H                     0.067025
      3 H                     0.067025
      4 C                    -0.162143
      5 H                     0.067025
      6 H                     0.067025
      7 C                    -0.188032
      8 C                    -0.063183
      9 C                    -0.063183
     10 C                    -0.188032
     11 C                    -0.063183
     12 C                    -0.063183
     13 H                     0.144287
     14 H                     0.099102
     15 H                     0.099102
     16 H                     0.144287
     17 H                     0.099102
     18 H                     0.099102
  ----------------------------------------
  Sum of atomic charges =     0.000000

 -----------------------------------------------------------------
                    Cartesian Multipole Moments
 -----------------------------------------------------------------
    Charge (ESU x 10^10)
                 0.0000
    Dipole Moment (Debye)
         X       0.0000      Y       0.0000      Z       0.4508
       Tot       0.4508
    Quadrupole Moments (Debye-Ang)
        XX     -44.0946     XY       0.0000     YY     -44.5273
        XZ       0.0000     YZ       0.0000     ZZ     -58.4494
    Octopole Moments (Debye-Ang^2)
       XXX       0.0000    XXY       0.0000    XYY       0.0000
       YYY       0.0000    XXZ       0.9678    XYZ       0.0000
       YYZ       0.2993    XZZ       0.0000    YZZ       0.0000
       ZZZ       7.8729
    Hexadecapole Moments (Debye-Ang^3)
      XXXX    -331.6773   XXXY       0.0000   XXYY    -101.9398
      XYYY       0.0000   YYYY    -292.1376   XXXZ       0.0000
      XXYZ       0.0000   XYYZ       0.0000   YYYZ       0.0000
      XXZZ    -134.8387   XYZZ       0.0000   YYZZ    -127.3804
      XZZZ       0.0000   YZZZ       0.0000   ZZZZ    -502.3361
 -----------------------------------------------------------------
Archival summary:
1\1\woodstock\SP\HF\6-31G\810\lindorfe\TueFeb409:43:552020TueFeb409:43:552020\0\\#,HF,6-31G,\\0,1\C\H,1,1.0756\C,1,1.3862,2,120\H,3,1.0756,1,120,2,0,0\C,3,1.3862,1,120,2,-180,0\H,5,1.0756,3,120,1,180,0\C,5,1.3862,3,120,1,0,0\H,7,1.0756,5,120,3,-180,0\C,7,1.3862,5,120,3,0,0\H,9,1.0756,7,120,5,-180,0\C,9,1.3862,7,120,5,0,0\H,11,1.0756,9,120,7,180,0\H,9,2.5739,7,78.5642,5,-97.7099,0\C,13,1.08931,9,88.7747,7,60.6839,0\H,14,1.08931,13,116.791,9,-103.71,0\C,14,1.34104,13,121.604,9,76.2903,0\H,16,1.08931,14,121.604,13,-180,0\H,16,1.08931,14,121.604,13,0,0\\HF=-308.575013\\@

 Total job time:  10.89s(wall), 10.88s(cpu) 
 Tue Feb  4 09:43:55 2020

        *************************************************************
        *                                                           *
        *  Thank you very much for using Q-Chem.  Have a nice day.  *
        *                                                           *
        *************************************************************


