
Running Job 1 of 1 FED_ethylene_85_symm_CIS_relaxed.inp
qchem FED_ethylene_85_symm_CIS_relaxed.inp_5260.0 /tmp_qchem/qchem5260/ 1
/usr/local/qchem/exe/qcprog.exe_s FED_ethylene_85_symm_CIS_relaxed.inp_5260.0 /tmp_qchem/qchem5260/
Check license passed

                  Welcome to Q-Chem
     A Quantum Leap Into The Future Of Chemistry


 Q-Chem 4.4, Q-Chem, Inc., Pleasanton, CA (2016)

 Y. Shao,  Z. Gan,  E. Epifanovsky,  A. T. B. Gilbert,  M. Wormit,  
 J. Kussmann,  A. W. Lange,  A. Behn,  J. Deng,  X. Feng,  D. Ghosh,  
 M. Goldey,  P. R. Horn,  L. D. Jacobson,  I. Kaliman,  F. Rob,  
 R. Z. Khaliullin,  T. Kus,  A. Landau,  J. Liu,  E. I. Proynov,  Y. M. Rhee,  
 R. M. Richard,  M. A. Rohrdanz,  R. P. Steele,  E. J. Sundstrom,  
 H. L. Woodcock III,  P. M. Zimmerman,  D. Zuev,  B. Albrecht,  E. Alguire,  
 B. Austin,  S. A. Baeppler,  G. J. O. Beran,  Y. A. Bernard,  E. Berquist,  
 K. Brandhorst,  K. B. Bravaya,  S. T. Brown,  D. Casanova,  C.-M. Chang,  
 Y. Chen,  S. H. Chien,  K. D. Closser,  M. P. Coons,  D. L. Crittenden,  
 S. Dasgupta,  M. Diedenhofen,  R. A. DiStasio Jr.,  H. Do,  A. D. Dutoi,  
 R. G. Edgar,  P.-T. Fang,  S. Fatehi,  Q. Feng,  L. Fusti-Molnar,  
 A. Ghysels,  A. Golubeva-Zadorozhnaya,  J. Gomes,  A. Gunina,  
 M. W. D. Hanson-Heine,  P. H. P. Harbach,  A. W. Hauser,  J. E. Herr,  
 E. G. Hohenstein,  Z. C. Holden,  K. Hui,  T.-C. Jagau,  H. Ji,  B. Kaduk,  
 K. Khistyaev,  Jaehoon Kim,  Jihan Kim,  R. A. King,  P. Klunzinger,  
 K. Koh,  D. Kosenkov,  T. Kowalczyk,  C. M. Krauter,  A. Kunitsa,  
 K. U. Lao,  A. Laurent,  K. V. Lawler,  J. Lee,  D. Lefrancois,  S. Lehtola,  
 S. V. Levchenko,  C. Y. Lin,  Y.-S. Lin,  F. Liu,  E. Livshits,  
 R. C. Lochan,  A. Luenser,  P. Manohar,  S. F. Manzer,  S.-P. Mao,  Y. Mao,  
 N. Mardirossian,  A. V. Marenich,  L. A. Martinez-Martinez,  S. A. Maurer,  
 N. J. Mayhall,  J.-M. Mewes,  A. F. Morrison,  K. Nanda,  T. S. Nguyen-Beck,  
 C. M. Oana,  R. Olivares-Amaya,  D. P. O'Neill,  J. A. Parkhill,  
 T. M. Perrine,  R. Peverati,  P. A. Pieniazek,  F. Plasser,  A. Prociuk,  
 D. R. Rehn,  E. Rosta,  N. J. Russ,  N. Sergueev,  S. M. Sharada,  
 S. Sharma,  D. W. Small,  A. Sodt,  T. Stauch,  T. Stein,  D. Stuck,  
 Y.-C. Su,  A. J. W. Thom,  T. Tsuchimochi,  L. Vogt,  O. Vydrov,  T. Wang,  
 M. A. Watson,  J. Wenzel,  A. White,  C. F. Williams,  V. Vanovschi,  
 K. Yao,  S. Yeganeh,  S. R. Yost,  Z.-Q. You,  I. Y. Zhang,  X. Zhang,  
 Y. Zhao,  B. R. Brooks,  G. K. L. Chan,  D. M. Chipman,  C. J. Cramer,  
 W. A. Goddard III,  M. S. Gordon,  W. J. Hehre,  A. Klamt,  
 H. F. Schaefer III,  M. W. Schmidt,  C. D. Sherrill,  D. G. Truhlar,  
 A. Warshel,  X. Xu,  A. Aspuru-Guzik,  R. Baer,  A. T. Bell,  N. A. Besley,  
 J.-D. Chai,  A. Dreuw,  B. D. Dunietz,  T. R. Furlani,  S. R. Gwaltney,  
 C.-P. Hsu,  Y. Jung,  J. Kong,  D. S. Lambrecht,  W. Liang,  C. Ochsenfeld,  
 V. A. Rassolov,  L. V. Slipchenko,  J. E. Subotnik,  T. Van Voorhis,  
 J. M. Herbert,  A. I. Krylov,  P. M. W. Gill,  M. Head-Gordon

 Contributors to earlier versions of Q-Chem not listed above: 
 R. D. Adamson,  J. Baker,  E. F. C. Byrd,  A. K. Chakraborty,  C.-L. Cheng,  
 H. Dachsel,  R. J. Doerksen,  G. Hawkins,  A. Heyden,  S. Hirata,  
 G. Kedziora,  F. J. Keil,  C. Kelley,  P. P. Korambath,  W. Kurlancheek,  
 A. M. Lee,  M. S. Lee,  D. Liotard,  I. Lotan,  P. E. Maslen,  N. Nair,  
 D. Neuhauser,  R. Olson,  B. Peters,  J. Ritchie,  N. E. Schultz,  
 N. Shenvi,  A. C. Simmonett,  K. S. Thanthiriwatte,  Q. Wu,  W. Zhang

 Please cite Q-Chem as follows:
 Y. Shao et al., Mol. Phys. 113, 184-215 (2015)
 DOI: 10.1080/00268976.2014.952696

 Q-Chem 4.4.2 for Intel X86 Linux

 Parts of Q-Chem use Armadillo 5.200.1 (Boston Tea Smuggler).
 http://arma.sourceforge.net/

 Q-Chem begins on Wed Jan 29 15:54:23 2020  

Host: 
0

     Scratch files written to /tmp_qchem/qchem5260//
 Dec716 11556_ 22328  22283 4817   
Processing $rem in /usr/local/qchem/config/preferences.
 MEM_TOTAL  24576 
FILE_GEOM_ORG=        593

Checking the input file for inconsistencies... 	...done.

--------------------------------------------------------------
User input:
--------------------------------------------------------------
$molecule
0  1
C     0.670518    0.000000    0.000000
H     1.241372    0.927754    0.000000
H     1.241372   -0.927754    0.000000
C    -0.670518    0.000000    0.000000
H    -1.241372   -0.927754    0.000000
H    -1.241372    0.927754    0.000000
C     0.670518    0.000000    8.500000
H     1.241372    0.927754    8.500000
H     1.241372   -0.927754    8.500000
C    -0.670518    0.000000    8.500000
H    -1.241372   -0.927754    8.500000
H    -1.241372    0.927754    8.500000
$end

$rem
basis 		6-31G
METHOD 			CIS
CIS_N_ROOTS       10
CIS_SINGLETS      true
CIS_TRIPLETS      false
STS_FED           true
STS_DONOR         1-6
STS_ACCEPTOR      7-12
POP_MULLIKEN      -1
STS_MOM			 true
CIS_RELAXED_DENSITY  true
CIS_MULLIKEN	true
$end

--------------------------------------------------------------
 ----------------------------------------------------------------
             Standard Nuclear Orientation (Angstroms)
    I     Atom           X                Y                Z
 ----------------------------------------------------------------
    1      C      -4.2500000000    -0.6705180000     0.0000000000
    2      H      -4.2500000000    -1.2413720000    -0.9277540000
    3      H      -4.2500000000    -1.2413720000     0.9277540000
    4      C      -4.2500000000     0.6705180000     0.0000000000
    5      H      -4.2500000000     1.2413720000     0.9277540000
    6      H      -4.2500000000     1.2413720000    -0.9277540000
    7      C       4.2500000000    -0.6705180000     0.0000000000
    8      H       4.2500000000    -1.2413720000    -0.9277540000
    9      H       4.2500000000    -1.2413720000     0.9277540000
   10      C       4.2500000000     0.6705180000     0.0000000000
   11      H       4.2500000000     1.2413720000     0.9277540000
   12      H       4.2500000000     1.2413720000    -0.9277540000
 ----------------------------------------------------------------
 Molecular Point Group                 D2h   NOp =  8
 Largest Abelian Subgroup              D2h   NOp =  8
 Nuclear Repulsion Energy =    82.0967810504 hartrees
 There are       16 alpha and       16 beta electrons
 Requested basis set is 6-31G
 There are 28 shells and 52 basis functions

 Total QAlloc Memory Limit  24576 MB
 Mega-Array Size        61 MB
 MEM_STATIC part        62 MB

                       Distance Matrix (Angstroms)
             C (  1)   H (  2)   H (  3)   C (  4)   H (  5)   H (  6)
   H (  2)  1.089313
   H (  3)  1.089313  1.855508
   C (  4)  1.341036  2.125100  2.125100
   H (  5)  2.125100  3.099504  2.482744  1.089313
   H (  6)  2.125100  2.482744  3.099504  1.089313  1.855508
   C (  7)  8.500000  8.569516  8.569516  8.605137  8.761624  8.761624
   H (  8)  8.569516  8.500000  8.700167  8.761624  9.047482  8.855169
   H (  9)  8.569516  8.700167  8.500000  8.761624  8.855169  9.047482
   C ( 10)  8.605137  8.761624  8.761624  8.500000  8.569516  8.569516
   H ( 11)  8.761624  9.047482  8.855169  8.569516  8.500000  8.700167
   H ( 12)  8.761624  8.855169  9.047482  8.569516  8.700167  8.500000
             C (  7)   H (  8)   H (  9)   C ( 10)   H ( 11)
   H (  8)  1.089313
   H (  9)  1.089313  1.855508
   C ( 10)  1.341036  2.125100  2.125100
   H ( 11)  2.125100  3.099504  2.482744  1.089313
   H ( 12)  2.125100  2.482744  3.099504  1.089313  1.855508
 
 A cutoff of  1.0D-11 yielded    226 shell pairs
 There are       790 function pairs
 
 -------------------------------------------------------
 OpenMP Integral Computing Module                       
 Release: version 1.0, May 2013, Q-Chem Inc. Pittsburgh 
 -------------------------------------------------------
 Integral Job Info:
 Integral job number is                      11
 Integral operator is                         1
 short-range coefficients                     0
 long-range coefficients              100000000
 Omega coefficients                           0
 if combine SR and LR in K                    0
 Integral screening is                        0
 Integral computing path is                   2
 max size of driver memory is            800000
 size of driver memory is                 45569
 size of scratch memory is              1939132
 max col of scratch BK array                289
 max len of scratch array in speh3           22
 max len of scratch index in speh4            8
 max int batch size is                      520
 min int batch size is                       52
 fixed nKL is                                52
 max L of basis functions is                  1
 order of int derivative is                   0
 number of shells is                         28
 number of basis is                          52
 number of cartesian basis is                52
 number of contracted shell pairs           226
 number of primitive shell pairs           1170
 maxK2 (contraction) of shell pair           36
 max number of K2 of shell pair               1
 max number of CS2 of shell pair             32
 max number of PS2 of shell pair            168
 mem total for path MDJ                    9426
 -------------------------------------------------------
 Smallest overlap matrix eigenvalue = 9.84E-03

 Scale SEOQF with 1.000000e-01/1.000000e+00/1.000000e+00

 Standard Electronic Orientation quadrupole field applied
 Nucleus-field energy     =     0.0000000298 hartrees
 Guess from superposition of atomic densities
 Warning:  Energy on first SCF cycle will be non-variational
 A restricted Hartree-Fock SCF calculation will be
 performed using Pulay DIIS extrapolation
 SCF converges when DIIS error is below 1.0E-08
 ---------------------------------------
  Cycle       Energy         DIIS Error
 ---------------------------------------
    1    -156.7751919331      1.27E-01
    2    -155.9730078920      8.08E-03
    3    -156.0045746761      1.82E-03
    4    -156.0064729785      4.77E-04
    5    -156.0065736922      7.18E-05
    6    -156.0065775545      7.40E-06
    7    -156.0065776028      1.10E-06
    8    -156.0065776038      5.59E-08
    9    -156.0065776038      4.16E-09 Convergence criterion met
 ---------------------------------------
 SCF time:  CPU 0.04 s  wall 0.04 s
 SCF   energy in the final basis set = -156.0065776038
 Total energy in the final basis set = -156.0065776038
 Direct RCIS calculation will be performed
 Singlet excitation energies requested
 CIS energy converged when residual is below 10e- 6
 NRoots was altered as: 10 --> 12
 ---------------------------------------------------
 Iter    Rts Conv    Rts Left    Ttl Dev     Max Dev
 ---------------------------------------------------
   1         0          12      0.021264    0.006434
   2         0          12      0.003075    0.001054
   3         4           8      0.006039    0.001928
   4         4           8      0.000181    0.000068
   5         6           6      0.021096    0.010896
   6         8           4      0.001841    0.001051
   7         9           3      0.010017    0.005527
   8        10           2      0.002426    0.001396
   9        10           2      0.000722    0.000509
  10         8           4      0.016013    0.008380
  11         8           4      0.004539    0.002407
  12         8           4      0.001037    0.000521
  13         8           4      0.000181    0.000124
  14         9           3      0.000063    0.000037
  15        10           2      0.000011    0.000005
  16        12           0      0.000003    0.000001    Roots Converged
 ---------------------------------------------------
 
 
 ---------------------------------------------------
               CIS Excitation Energies              
 ---------------------------------------------------

 Excited state   1: excitation energy (eV) =    8.6002
    Total energy for state   1:   -155.690527687384
    Multiplicity: Singlet 
    Trans. Mom.:  0.0000 X   0.0000 Y   0.0000 Z
    Strength   :     0.0000000000
    D( 15) --> V(  1) amplitude =  0.6856
    D( 16) --> V(  2) amplitude =  0.6856

 Excited state   2: excitation energy (eV) =    8.6432
    Total energy for state   2:   -155.688944242370
    Multiplicity: Singlet 
    Trans. Mom.:  0.0000 X   2.4752 Y   0.0000 Z
    Strength   :     1.2973436027
    D( 15) --> V(  1) amplitude =  0.6854
    D( 16) --> V(  2) amplitude = -0.6854

 Excited state   3: excitation energy (eV) =    9.4484
    Total energy for state   3:   -155.659356066069
    Multiplicity: Singlet 
    Trans. Mom.:  0.0000 X   0.0000 Y   0.0000 Z
    Strength   :     0.0000000000
    D( 13) --> V(  1) amplitude = -0.4857
    D( 13) --> V(  2) amplitude = -0.4857
    D( 14) --> V(  1) amplitude = -0.4857
    D( 14) --> V(  2) amplitude =  0.4857

 Excited state   4: excitation energy (eV) =    9.4488
    Total energy for state   4:   -155.659339071149
    Multiplicity: Singlet 
    Trans. Mom.:  0.0000 X   0.0000 Y  -0.0012 Z
    Strength   :     0.0000003217
    D( 13) --> V(  1) amplitude = -0.4857
    D( 13) --> V(  2) amplitude =  0.4857
    D( 14) --> V(  1) amplitude = -0.4857
    D( 14) --> V(  2) amplitude = -0.4857

 Excited state   5: excitation energy (eV) =   10.1326
    Total energy for state   5:   -155.634211223782
    Multiplicity: Singlet 
    Trans. Mom.: -0.0215 X   0.0000 Y   0.0000 Z
    Strength   :     0.0001151473
    D( 15) --> V(  3) amplitude = -0.4981
    D( 15) --> V(  4) amplitude = -0.4981
    D( 16) --> V(  3) amplitude =  0.4982
    D( 16) --> V(  4) amplitude = -0.4982

 Excited state   6: excitation energy (eV) =   10.1326
    Total energy for state   6:   -155.634210274262
    Multiplicity: Singlet 
    Trans. Mom.:  0.0000 X   0.0000 Y   0.0000 Z
    Strength   :     0.0000000000
    D( 15) --> V(  3) amplitude =  0.4982
    D( 15) --> V(  4) amplitude =  0.4982
    D( 16) --> V(  3) amplitude =  0.4981
    D( 16) --> V(  4) amplitude = -0.4981

 Excited state   7: excitation energy (eV) =   10.2958
    Total energy for state   7:   -155.628213350456
    Multiplicity: Singlet 
    Trans. Mom.:  0.0000 X   0.0000 Y   0.0000 Z
    Strength   :     0.0000000000
    D( 15) --> V(  5) amplitude = -0.4864
    D( 15) --> V(  6) amplitude =  0.4864
    D( 16) --> V(  5) amplitude =  0.4864
    D( 16) --> V(  6) amplitude =  0.4864

 Excited state   8: excitation energy (eV) =   10.2958
    Total energy for state   8:   -155.628212824765
    Multiplicity: Singlet 
    Trans. Mom.:  0.0000 X   0.0000 Y   0.0005 Z
    Strength   :     0.0000000513
    D( 15) --> V(  5) amplitude = -0.4864
    D( 15) --> V(  6) amplitude =  0.4864
    D( 16) --> V(  5) amplitude = -0.4864
    D( 16) --> V(  6) amplitude = -0.4864

 Excited state   9: excitation energy (eV) =   10.3165
    Total energy for state   9:   -155.627451478199
    Multiplicity: Singlet 
    Trans. Mom.:  0.0000 X   0.0000 Y   0.0000 Z
    Strength   :     0.0000000000
    D( 11) --> V(  1) amplitude = -0.6815
    D( 12) --> V(  2) amplitude =  0.6815

 Excited state  10: excitation energy (eV) =   10.3171
    Total energy for state  10:   -155.627430152012
    Multiplicity: Singlet 
    Trans. Mom.:  0.0000 X  -0.0025 Y   0.0000 Z
    Strength   :     0.0000016319
    D( 11) --> V(  1) amplitude =  0.6815
    D( 12) --> V(  2) amplitude =  0.6815

 Excited state  11: excitation energy (eV) =   11.5565
    Total energy for state  11:   -155.581882659230
    Multiplicity: Singlet 
    Trans. Mom.:  0.0000 X   0.0000 Y   0.0000 Z
    Strength   :     0.0000000000
    D( 15) --> V(  7) amplitude =  0.4886
    D( 15) --> V(  8) amplitude =  0.4886
    D( 16) --> V(  7) amplitude = -0.4887
    D( 16) --> V(  8) amplitude =  0.4887

 Excited state  12: excitation energy (eV) =   11.5566
    Total energy for state  12:   -155.581880765579
    Multiplicity: Singlet 
    Trans. Mom.:  0.0000 X   0.0002 Y   0.0000 Z
    Strength   :     0.0000000120
    D( 15) --> V(  7) amplitude =  0.4886
    D( 15) --> V(  8) amplitude =  0.4886
    D( 16) --> V(  7) amplitude =  0.4886
    D( 16) --> V(  8) amplitude = -0.4886
 
 ---------------------------------------------------
 Calculating Relaxed Density
 ---------------------------------------------------
 Iter    Rts Conv    Rts Left    Ttl Dev     Max Dev
 ---------------------------------------------------
   1         0          12      0.001824    0.000247
   2         5           7      0.000053    0.000013
   3        12           0      0.000000    0.000000    Roots Converged
 ---------------------------------------------------
  Timing summary (seconds)
  CPU time          0.83s
  System time       0.00s
  Wall time         0.83s

                    FED ELECTRONIC-COUPLING CALCULATION


 Within CIS/TDA Excited States:

       Fragment Excitations of Singlet Excited State 
 -----------------------------------------------------
   State         X(D)        X(A)          dX
 -----------------------------------------------------
       1    -1.000000   -1.000000    0.000000
       2    -1.000000   -1.000000   -0.000000
       3    -1.000003   -0.999997   -0.000006
       4    -0.999997   -1.000003    0.000006
       5    -0.999946   -1.000054    0.000108
       6    -1.000054   -0.999946   -0.000108
       7    -0.999911   -1.000089    0.000177
       8    -1.000089   -0.999911   -0.000177
       9    -0.999983   -1.000017    0.000035
      10    -1.000017   -0.999983   -0.000035
      11    -0.999966   -1.000034    0.000068
      12    -1.000034   -0.999966   -0.000068
 -----------------------------------------------------

               Fragment Excitations of Transition Densities and
            FED Couplings Between Singlet Excited States
 --------------------------------------------------------------------------------
    States     X12(D)     X12(A)       dX12    Coupling(eV)   FED-dX1    FED-dX2
 --------------------------------------------------------------------------------
    1    2  -0.999975   0.999975  -1.999949    -0.02154387   1.999949  -1.999949
    1    3  -0.000000   0.000000  -0.000000  -1.732675E-09   0.000000  -0.000006
    1    4  -0.000000   0.000000  -0.000000   3.245903E-09   0.000000   0.000006
    1    5  -0.000000  -0.000000  -0.000000   7.085197E-11   0.000000   0.000108
    1    6   0.000000  -0.000000   0.000000   3.777865E-11   0.000000  -0.000108
    1    7  -0.000000   0.000000  -0.000000   4.779891E-11   0.000000   0.000177
    1    8   0.000000  -0.000000   0.000000   4.141959E-11   0.000000  -0.000177
    1    9   0.000000  -0.000000   0.000000   -0.002297917   0.000000   0.000035
    1   10   0.002677  -0.002677   0.005353      0.8584811   0.005336  -0.005371
    1   11   0.000000  -0.000000   0.000000  -0.0005980022   0.000000   0.000068
    1   12  -0.000405   0.000405  -0.000809      -1.476926   0.000776  -0.000844
    2    3   0.000000  -0.000000   0.000000    1.54718E-09  -0.000000  -0.000006
    2    4  -0.000000  -0.000000   0.000000  -4.188809E-10  -0.000000   0.000006
    2    5   0.000000   0.000000  -0.000000   1.376843E-11  -0.000000   0.000108
    2    6  -0.000000  -0.000000  -0.000000   -1.37722E-11  -0.000000  -0.000108
    2    7  -0.000000  -0.000000   0.000000             -0  -0.000000   0.000177
    2    8  -0.000000  -0.000000  -0.000000  -1.035216E-11  -0.000000  -0.000177
    2    9   0.002682  -0.002682   0.005365     -0.8366472  -0.005347   0.005382
    2   10  -0.000000   0.000000  -0.000000   -0.002244116  -0.000000  -0.000035
    2   11   0.000406  -0.000406   0.000812      -1.455384  -0.000779   0.000847
    2   12   0.000000  -0.000000   0.000000   0.0005916531  -0.000000  -0.000068
    3    4  -1.000000   1.000000  -1.999999   0.0002312276  -1.999999   1.999999
    3    5  -0.000000  -0.000000  -0.000000   2.065035E-11  -0.000006   0.000108
    3    6   0.000000  -0.000000   0.000000    5.80316E-11  -0.000006  -0.000108
    3    7  -0.000000   0.000000  -0.000000    3.66322E-05  -0.000006   0.000177
    3    8   0.000086  -0.000086   0.000173      0.3796963   0.000101  -0.000285
    3    9  -0.000000  -0.000000  -0.000000   1.302963E-10  -0.000006   0.000035
    3   10   0.000000  -0.000000   0.000000   2.180117E-10  -0.000006  -0.000035
    3   11  -0.000000  -0.000000  -0.000000   6.357511E-11  -0.000006   0.000068
    3   12  -0.000000   0.000000  -0.000000  -4.096909E-10  -0.000006  -0.000068
    4    5  -0.000000  -0.000000   0.000000  -1.040849E-11   0.000006   0.000108
    4    6   0.000000   0.000000   0.000000   2.463147E-11   0.000006  -0.000108
    4    7  -0.000087   0.000087  -0.000173      0.3795796  -0.000102   0.000285
    4    8  -0.000000   0.000000  -0.000000  -3.665361E-05   0.000006  -0.000177
    4    9  -0.000000   0.000000  -0.000000   4.556001E-10   0.000006   0.000035
    4   10   0.000000   0.000000   0.000000   9.477382E-12   0.000006  -0.000035
    4   11  -0.000000   0.000000  -0.000000   3.868359E-10   0.000006   0.000068
    4   12   0.000000  -0.000000   0.000000    4.67186E-10   0.000006  -0.000068
    5    6   1.000000  -1.000000   2.000000   1.291888E-05   2.000000  -2.000000
    5    7   0.000000   0.000000  -0.000000   1.964596E-11   0.000108   0.000177
    5    8   0.000000  -0.000000   0.000000   6.160819E-12   0.000108  -0.000177
    5    9   0.000000  -0.000000   0.000000   1.419901E-11   0.000108   0.000035
    5   10   0.000000  -0.000000   0.000000   3.098886E-11   0.000108  -0.000035
    5   11   0.000000   0.000000   0.000000   5.086211E-11   0.000108   0.000068
    5   12  -0.000000   0.000000  -0.000000  -2.878731E-11   0.000108  -0.000068
    6    7  -0.000000   0.000000  -0.000000   1.231861E-11  -0.000108   0.000177
    6    8  -0.000000   0.000000  -0.000000  -4.426577E-11  -0.000108  -0.000177
    6    9  -0.000000   0.000000  -0.000000   3.088706E-11  -0.000108   0.000035
    6   10  -0.000000   0.000000  -0.000000   2.848361E-11  -0.000108  -0.000035
    6   11  -0.000000   0.000000  -0.000000   7.106481E-11  -0.000108   0.000068
    6   12  -0.000000   0.000000  -0.000000    1.95627E-11  -0.000108  -0.000068
    7    8  -1.000000   1.000000  -2.000000  -7.152395E-06   2.000000  -2.000000
    7    9   0.000000  -0.000000   0.000000   6.637332E-12   0.000177   0.000035
    7   10  -0.000000   0.000000  -0.000000  -1.609638E-11   0.000177  -0.000035
    7   11   0.000000   0.000000  -0.000000  -7.152919E-11   0.000177   0.000068
    7   12   0.000000  -0.000000   0.000000   5.372362E-11   0.000177  -0.000068
    8    9  -0.000000   0.000000  -0.000000   1.490941E-11  -0.000177   0.000035
    8   10   0.000000  -0.000000   0.000000  -8.610277E-12  -0.000177  -0.000035
    8   11   0.000000  -0.000000   0.000000  -3.371838E-11  -0.000177   0.000068
    8   12   0.000000   0.000000  -0.000000   5.364847E-11  -0.000177  -0.000068
    9   10   0.999996  -0.999996   1.999992   0.0002901575   1.999992  -1.999992
    9   11   0.000000  -0.000000   0.000000  -8.078033E-05   0.000035   0.000068
    9   12  -0.000132   0.000132  -0.000263     -0.6086264   0.000252  -0.000285
   10   11  -0.000133   0.000133  -0.000266      0.6085377  -0.000254   0.000287
   10   12  -0.000000   0.000000  -0.000000  -8.327456E-05  -0.000035  -0.000068
   11   12  -1.000000   1.000000  -2.000000  -2.576444E-05   2.000000  -2.000000
 --------------------------------------------------------------------------------

                          END OF FED CALCULATION


                    STATE-TO-STATE TRANSITION MOMENTS


    Electron Dipole Moments of Ground State
 -----------------------------------------------------
   State     X           Y           Z(a.u.) 
 -----------------------------------------------------
       0    -0.000000   -0.000000    0.000000
 -----------------------------------------------------

 Within CIS/TDA Excited States:

    Electron Dipole Moments of Singlet Excited State
 -----------------------------------------------------
   State     X           Y           Z(a.u.) 
 -----------------------------------------------------
       1    -0.000000   -0.000000    0.000000
       2    -0.000000   -0.000000    0.000000
       3    -0.000000   -0.000000    0.000000
       4     0.000000   -0.000000    0.000000
       5     0.000000    0.000000    0.000000
       6    -0.000000    0.000000    0.000000
       7    -0.000000   -0.000000   -0.000000
       8     0.000000   -0.000000   -0.000000
       9     0.000000   -0.000000    0.000000
      10    -0.000000   -0.000000    0.000000
      11     0.000000   -0.000000    0.000000
      12    -0.000000   -0.000000   -0.000000
 -----------------------------------------------------

                Transition Moments Between Ground and Singlet Excited States
 --------------------------------------------------------------------------------
    States   X          Y          Z           Strength(a.u.)
 --------------------------------------------------------------------------------
    0    1   0.000000  -0.000000   0.000000   1.511107E-17
    0    2   0.000000   2.475199   0.000000       1.297344
    0    3  -0.000000  -0.000000  -0.000000   7.155931E-19
    0    4  -0.000000   0.000000  -0.001179   3.216759E-07
    0    5  -0.021537  -0.000000  -0.000000   0.0001151473
    0    6   0.000001   0.000000  -0.000000   8.405851E-14
    0    7  -0.000000   0.000000  -0.000000   1.006973E-16
    0    8  -0.000000  -0.000000   0.000451   5.128228E-08
    0    9  -0.000000  -0.000000  -0.000000   1.230225E-16
    0   10  -0.000000  -0.002541  -0.000000   1.631904E-06
    0   11   0.000000  -0.000000  -0.000000    3.45318E-18
    0   12  -0.000000   0.000206   0.000000   1.196223E-08
 --------------------------------------------------------------------------------

                Transition Moments Between Singlet Excited States
 --------------------------------------------------------------------------------
    States   X          Y          Z           Strength(a.u.)
 --------------------------------------------------------------------------------
    1    2  -0.000188   0.000000  -0.000000   3.736222E-11
    1    3   0.000000  -0.000000   0.000000   2.356145E-29
    1    4  -0.000000  -0.000000  -0.000000   7.907465E-29
    1    5  -0.000000  -0.000152   0.000000   8.654412E-10
    1    6  -0.000000   0.000000   0.000000   6.313634E-19
    1    7  -0.000000   0.000000  -0.000000    3.41431E-29
    1    8   0.000000  -0.000000  -0.000000   1.581766E-29
    1    9  -0.000000  -0.000000   0.000000   1.526949E-15
    1   10  -0.021933  -0.000000   0.000000   2.023579E-05
    1   11  -0.000003   0.000000  -0.000000   4.852465E-13
    1   12   0.152979   0.000000   0.000000    0.001695086
    2    3   0.000000  -0.000000  -0.000000   1.542265E-28
    2    4  -0.000000   0.000000   0.000000    2.37333E-28
    2    5   0.000000   0.000000  -0.000000   1.027417E-18
    2    6   0.000000   0.000196  -0.000000   1.408054E-09
    2    7  -0.000000  -0.000000  -0.000000   3.206666E-29
    2    8   0.000000   0.000000  -0.000000    5.13313E-29
    2    9   0.023020   0.000000  -0.000000   2.172442E-05
    2   10  -0.000000   0.000000  -0.000000   1.637276E-15
    2   11   0.153040   0.000000  -0.000000    0.001671674
    2   12   0.000003   0.000000   0.000000   4.785904E-13
    3    4  -0.000103  -0.000000  -0.000000   1.209957E-13
    3    5  -0.000000  -0.000000  -0.317920    0.001694317
    3    6  -0.000000  -0.000000   0.000009   1.376975E-12
    3    7   0.000000  -0.000000  -0.000000   6.462664E-22
    3    8  -0.000002   0.000000  -0.000000   8.835544E-14
    3    9  -0.000000   0.000000  -0.000000   3.753605E-29
    3   10   0.000000   0.000000   0.000000   5.362588E-29
    3   11   0.000000   0.000000   0.000000    2.30903E-26
    3   12  -0.000000   0.000000   0.000000   6.318001E-26
    4    5   0.000000   0.000000   0.000009   1.377031E-12
    4    6   0.000000   0.000000   0.318002      0.0016941
    4    7   0.000057   0.000000  -0.000000   6.750926E-11
    4    8   0.000000  -0.000000  -0.000000   1.328748E-19
    4    9   0.000000  -0.000000  -0.000000   9.400215E-29
    4   10  -0.000000  -0.000000   0.000000   3.969273E-29
    4   11   0.000000  -0.000000   0.000000   4.469334E-26
    4   12  -0.000000  -0.000000   0.000000   7.661452E-26
    5    6   0.000064  -0.000000  -0.000000    2.55275E-15
    5    7   0.000000  -0.000000  -1.812549     0.01313668
    5    8   0.000000   0.000000  -0.000031    3.92931E-12
    5    9   0.000000  -0.364181   0.000000   0.0005976876
    5   10  -0.000000  -0.000007   0.000000   2.020001E-13
    5   11  -0.000000   2.301933  -0.000000      0.1848557
    5   12  -0.000000  -0.000023   0.000000   1.886163E-11
    6    7   0.000000  -0.000000  -0.000031   3.927877E-12
    6    8  -0.000000   0.000000   1.812526     0.01313542
    6    9  -0.000000   0.000007   0.000000   2.008968E-13
    6   10   0.000000  -0.364474   0.000000   0.0006004543
    6   11   0.000000  -0.000023  -0.000000   1.886375E-11
    6   12  -0.000000  -2.301878   0.000000      0.1848502
    7    8   0.000002   0.000000  -0.000000   1.812563E-18
    7    9   0.000000  -0.000000  -0.000000   2.125161E-29
    7   10  -0.000000   0.000000   0.000000     2.6597E-30
    7   11   0.000000   0.000000   0.000000   7.052188E-27
    7   12  -0.000000   0.000000  -0.000000   2.506598E-28
    8    9  -0.000000  -0.000000  -0.000000   1.786559E-30
    8   10   0.000000   0.000000   0.000000   2.569949E-29
    8   11   0.000000   0.000000  -0.000000   3.868632E-27
    8   12  -0.000000   0.000000   0.000000   1.885548E-26
    9   10   0.000068   0.000000   0.000000   6.494246E-14
    9   11   0.000000   0.000000   0.000000   3.227514E-20
    9   12  -0.000166   0.000000   0.000000   8.397006E-10
   10   11  -0.000205  -0.000000   0.000000   1.275575E-09
   10   12  -0.000000  -0.000000   0.000000   1.246619E-19
   11   12  -0.000041  -0.000000  -0.000000   2.115443E-15
 --------------------------------------------------------------------------------

                    END OF TRANSITION MOMEMT CALCULATION

 STSman time:  CPU 0.03 s  wall 0.03 s

 =====================================
    Mulliken & Loewdin analysis of   
    e-/h+ contributions to (Delta)P  
 =====================================
  Mulliken analysis of TDA State    1
 -------------------------------------
   Atom      e-      h+     (Del)q    
 -------------------------------------
      1  -0.2448   0.2458   0.0011
      2  -0.0026   0.0021  -0.0005
      3  -0.0026   0.0021  -0.0005
      4  -0.2448   0.2458   0.0011
      5  -0.0026   0.0021  -0.0005
      6  -0.0026   0.0021  -0.0005
      7  -0.2448   0.2458   0.0011
      8  -0.0026   0.0021  -0.0005
      9  -0.0026   0.0021  -0.0005
     10  -0.2448   0.2458   0.0011
     11  -0.0026   0.0021  -0.0005
     12  -0.0026   0.0021  -0.0005
  Sum:   -1.0000   1.0000  -0.0000
 -------------------------------------
  Loewdin analysis of TDA State    1
 -------------------------------------
   Atom      e-      h+     (Del)q    
 -------------------------------------
      1  -0.2462   0.2458  -0.0004
      2  -0.0019   0.0021   0.0002
      3  -0.0019   0.0021   0.0002
      4  -0.2462   0.2458  -0.0004
      5  -0.0019   0.0021   0.0002
      6  -0.0019   0.0021   0.0002
      7  -0.2462   0.2458  -0.0004
      8  -0.0019   0.0021   0.0002
      9  -0.0019   0.0021   0.0002
     10  -0.2462   0.2458  -0.0004
     11  -0.0019   0.0021   0.0002
     12  -0.0019   0.0021   0.0002
  Sum:   -1.0000   1.0000  -0.0000
 -------------------------------------
  Mulliken analysis of TDA State    2
 -------------------------------------
   Atom      e-      h+     (Del)q    
 -------------------------------------
      1  -0.2449   0.2458   0.0009
      2  -0.0025   0.0021  -0.0004
      3  -0.0025   0.0021  -0.0004
      4  -0.2449   0.2458   0.0009
      5  -0.0025   0.0021  -0.0004
      6  -0.0025   0.0021  -0.0004
      7  -0.2449   0.2458   0.0009
      8  -0.0025   0.0021  -0.0004
      9  -0.0025   0.0021  -0.0004
     10  -0.2449   0.2458   0.0009
     11  -0.0025   0.0021  -0.0004
     12  -0.0025   0.0021  -0.0004
  Sum:   -1.0000   1.0000  -0.0000
 -------------------------------------
  Loewdin analysis of TDA State    2
 -------------------------------------
   Atom      e-      h+     (Del)q    
 -------------------------------------
      1  -0.2463   0.2458  -0.0005
      2  -0.0019   0.0021   0.0003
      3  -0.0019   0.0021   0.0003
      4  -0.2463   0.2458  -0.0005
      5  -0.0019   0.0021   0.0003
      6  -0.0019   0.0021   0.0003
      7  -0.2463   0.2458  -0.0005
      8  -0.0019   0.0021   0.0003
      9  -0.0019   0.0021   0.0003
     10  -0.2463   0.2458  -0.0005
     11  -0.0019   0.0021   0.0003
     12  -0.0019   0.0021   0.0003
  Sum:   -1.0000   1.0000  -0.0000
 -------------------------------------
  Mulliken analysis of TDA State    3
 -------------------------------------
   Atom      e-      h+     (Del)q    
 -------------------------------------
      1  -0.2398   0.1264  -0.1134
      2  -0.0051   0.0618   0.0567
      3  -0.0051   0.0618   0.0567
      4  -0.2398   0.1264  -0.1134
      5  -0.0051   0.0618   0.0567
      6  -0.0051   0.0618   0.0567
      7  -0.2398   0.1264  -0.1134
      8  -0.0051   0.0618   0.0567
      9  -0.0051   0.0618   0.0567
     10  -0.2398   0.1264  -0.1134
     11  -0.0051   0.0618   0.0567
     12  -0.0051   0.0618   0.0567
  Sum:   -1.0000   1.0000   0.0000
 -------------------------------------
  Loewdin analysis of TDA State    3
 -------------------------------------
   Atom      e-      h+     (Del)q    
 -------------------------------------
      1  -0.2421   0.1240  -0.1181
      2  -0.0039   0.0630   0.0591
      3  -0.0039   0.0630   0.0591
      4  -0.2421   0.1240  -0.1181
      5  -0.0039   0.0630   0.0591
      6  -0.0039   0.0630   0.0591
      7  -0.2421   0.1240  -0.1181
      8  -0.0039   0.0630   0.0591
      9  -0.0039   0.0630   0.0591
     10  -0.2421   0.1240  -0.1181
     11  -0.0039   0.0630   0.0591
     12  -0.0039   0.0630   0.0591
  Sum:   -1.0000   1.0000   0.0000
 -------------------------------------
  Mulliken analysis of TDA State    4
 -------------------------------------
   Atom      e-      h+     (Del)q    
 -------------------------------------
      1  -0.2397   0.1264  -0.1134
      2  -0.0051   0.0618   0.0567
      3  -0.0051   0.0618   0.0567
      4  -0.2397   0.1264  -0.1134
      5  -0.0051   0.0618   0.0567
      6  -0.0051   0.0618   0.0567
      7  -0.2397   0.1264  -0.1134
      8  -0.0051   0.0618   0.0567
      9  -0.0051   0.0618   0.0567
     10  -0.2397   0.1264  -0.1134
     11  -0.0051   0.0618   0.0567
     12  -0.0051   0.0618   0.0567
  Sum:   -1.0000   1.0000   0.0000
 -------------------------------------
  Loewdin analysis of TDA State    4
 -------------------------------------
   Atom      e-      h+     (Del)q    
 -------------------------------------
      1  -0.2421   0.1240  -0.1181
      2  -0.0039   0.0630   0.0590
      3  -0.0039   0.0630   0.0590
      4  -0.2421   0.1240  -0.1181
      5  -0.0039   0.0630   0.0590
      6  -0.0039   0.0630   0.0590
      7  -0.2421   0.1240  -0.1181
      8  -0.0039   0.0630   0.0590
      9  -0.0039   0.0630   0.0590
     10  -0.2421   0.1240  -0.1181
     11  -0.0039   0.0630   0.0590
     12  -0.0039   0.0630   0.0590
  Sum:   -1.0000   1.0000   0.0000
 -------------------------------------
  Mulliken analysis of TDA State    5
 -------------------------------------
   Atom      e-      h+     (Del)q    
 -------------------------------------
      1  -0.0093   0.2497   0.2404
      2  -0.1203   0.0001  -0.1202
      3  -0.1203   0.0001  -0.1202
      4  -0.0093   0.2497   0.2404
      5  -0.1203   0.0001  -0.1202
      6  -0.1203   0.0001  -0.1202
      7  -0.0093   0.2497   0.2404
      8  -0.1203   0.0001  -0.1202
      9  -0.1203   0.0001  -0.1202
     10  -0.0093   0.2497   0.2404
     11  -0.1203   0.0001  -0.1202
     12  -0.1203   0.0001  -0.1202
  Sum:   -1.0000   1.0000  -0.0000
 -------------------------------------
  Loewdin analysis of TDA State    5
 -------------------------------------
   Atom      e-      h+     (Del)q    
 -------------------------------------
      1  -0.1053   0.2497   0.1443
      2  -0.0723   0.0002  -0.0722
      3  -0.0723   0.0002  -0.0722
      4  -0.1053   0.2497   0.1443
      5  -0.0723   0.0002  -0.0722
      6  -0.0723   0.0002  -0.0722
      7  -0.1053   0.2497   0.1444
      8  -0.0723   0.0002  -0.0722
      9  -0.0723   0.0002  -0.0722
     10  -0.1053   0.2497   0.1444
     11  -0.0723   0.0002  -0.0722
     12  -0.0723   0.0002  -0.0722
  Sum:   -1.0000   1.0000  -0.0000
 -------------------------------------
  Mulliken analysis of TDA State    6
 -------------------------------------
   Atom      e-      h+     (Del)q    
 -------------------------------------
      1  -0.0093   0.2497   0.2404
      2  -0.1203   0.0001  -0.1202
      3  -0.1203   0.0001  -0.1202
      4  -0.0093   0.2497   0.2404
      5  -0.1203   0.0001  -0.1202
      6  -0.1203   0.0001  -0.1202
      7  -0.0093   0.2497   0.2404
      8  -0.1203   0.0001  -0.1202
      9  -0.1203   0.0001  -0.1202
     10  -0.0093   0.2497   0.2404
     11  -0.1203   0.0001  -0.1202
     12  -0.1203   0.0001  -0.1202
  Sum:   -1.0000   1.0000  -0.0000
 -------------------------------------
  Loewdin analysis of TDA State    6
 -------------------------------------
   Atom      e-      h+     (Del)q    
 -------------------------------------
      1  -0.1053   0.2497   0.1444
      2  -0.0723   0.0002  -0.0722
      3  -0.0723   0.0002  -0.0722
      4  -0.1053   0.2497   0.1444
      5  -0.0723   0.0002  -0.0722
      6  -0.0723   0.0002  -0.0722
      7  -0.1053   0.2497   0.1443
      8  -0.0723   0.0002  -0.0722
      9  -0.0723   0.0002  -0.0722
     10  -0.1053   0.2497   0.1443
     11  -0.0723   0.0002  -0.0722
     12  -0.0723   0.0002  -0.0722
  Sum:   -1.0000   1.0000  -0.0000
 -------------------------------------
  Mulliken analysis of TDA State    7
 -------------------------------------
   Atom      e-      h+     (Del)q    
 -------------------------------------
      1  -0.0393   0.2439   0.2045
      2  -0.1053   0.0031  -0.1023
      3  -0.1053   0.0031  -0.1023
      4  -0.0393   0.2439   0.2045
      5  -0.1053   0.0031  -0.1023
      6  -0.1053   0.0031  -0.1023
      7  -0.0393   0.2439   0.2046
      8  -0.1053   0.0031  -0.1023
      9  -0.1053   0.0031  -0.1023
     10  -0.0393   0.2439   0.2046
     11  -0.1053   0.0031  -0.1023
     12  -0.1053   0.0031  -0.1023
  Sum:   -1.0000   1.0000  -0.0000
 -------------------------------------
  Loewdin analysis of TDA State    7
 -------------------------------------
   Atom      e-      h+     (Del)q    
 -------------------------------------
      1  -0.0909   0.2438   0.1528
      2  -0.0795   0.0031  -0.0764
      3  -0.0795   0.0031  -0.0764
      4  -0.0909   0.2438   0.1528
      5  -0.0795   0.0031  -0.0764
      6  -0.0795   0.0031  -0.0764
      7  -0.0909   0.2438   0.1529
      8  -0.0795   0.0031  -0.0764
      9  -0.0795   0.0031  -0.0764
     10  -0.0909   0.2438   0.1529
     11  -0.0795   0.0031  -0.0764
     12  -0.0795   0.0031  -0.0764
  Sum:   -1.0000   1.0000  -0.0000
 -------------------------------------
  Mulliken analysis of TDA State    8
 -------------------------------------
   Atom      e-      h+     (Del)q    
 -------------------------------------
      1  -0.0393   0.2439   0.2046
      2  -0.1053   0.0031  -0.1023
      3  -0.1053   0.0031  -0.1023
      4  -0.0393   0.2439   0.2046
      5  -0.1053   0.0031  -0.1023
      6  -0.1053   0.0031  -0.1023
      7  -0.0393   0.2439   0.2045
      8  -0.1053   0.0031  -0.1023
      9  -0.1053   0.0031  -0.1023
     10  -0.0393   0.2439   0.2045
     11  -0.1053   0.0031  -0.1023
     12  -0.1053   0.0031  -0.1023
  Sum:   -1.0000   1.0000  -0.0000
 -------------------------------------
  Loewdin analysis of TDA State    8
 -------------------------------------
   Atom      e-      h+     (Del)q    
 -------------------------------------
      1  -0.0910   0.2438   0.1528
      2  -0.0795   0.0031  -0.0764
      3  -0.0795   0.0031  -0.0764
      4  -0.0910   0.2438   0.1528
      5  -0.0795   0.0031  -0.0764
      6  -0.0795   0.0031  -0.0764
      7  -0.0909   0.2438   0.1528
      8  -0.0795   0.0031  -0.0764
      9  -0.0795   0.0031  -0.0764
     10  -0.0909   0.2438   0.1528
     11  -0.0795   0.0031  -0.0764
     12  -0.0795   0.0031  -0.0764
  Sum:   -1.0000   1.0000  -0.0000
 -------------------------------------
  Mulliken analysis of TDA State    9
 -------------------------------------
   Atom      e-      h+     (Del)q    
 -------------------------------------
      1  -0.2416   0.1989  -0.0427
      2  -0.0042   0.0256   0.0214
      3  -0.0042   0.0256   0.0214
      4  -0.2416   0.1989  -0.0427
      5  -0.0042   0.0256   0.0214
      6  -0.0042   0.0256   0.0214
      7  -0.2416   0.1989  -0.0427
      8  -0.0042   0.0256   0.0214
      9  -0.0042   0.0256   0.0214
     10  -0.2416   0.1989  -0.0427
     11  -0.0042   0.0256   0.0214
     12  -0.0042   0.0256   0.0214
  Sum:   -1.0000   1.0000   0.0000
 -------------------------------------
  Loewdin analysis of TDA State    9
 -------------------------------------
   Atom      e-      h+     (Del)q    
 -------------------------------------
      1  -0.2447   0.2006  -0.0441
      2  -0.0027   0.0247   0.0221
      3  -0.0027   0.0247   0.0221
      4  -0.2447   0.2006  -0.0441
      5  -0.0027   0.0247   0.0221
      6  -0.0027   0.0247   0.0221
      7  -0.2447   0.2006  -0.0441
      8  -0.0027   0.0247   0.0221
      9  -0.0027   0.0247   0.0221
     10  -0.2447   0.2006  -0.0441
     11  -0.0027   0.0247   0.0221
     12  -0.0027   0.0247   0.0221
  Sum:   -1.0000   1.0000   0.0000
 -------------------------------------
  Mulliken analysis of TDA State   10
 -------------------------------------
   Atom      e-      h+     (Del)q    
 -------------------------------------
      1  -0.2416   0.1989  -0.0427
      2  -0.0042   0.0256   0.0213
      3  -0.0042   0.0256   0.0213
      4  -0.2416   0.1989  -0.0427
      5  -0.0042   0.0256   0.0213
      6  -0.0042   0.0256   0.0213
      7  -0.2416   0.1989  -0.0427
      8  -0.0042   0.0256   0.0213
      9  -0.0042   0.0256   0.0213
     10  -0.2416   0.1989  -0.0427
     11  -0.0042   0.0256   0.0213
     12  -0.0042   0.0256   0.0213
  Sum:   -1.0000   1.0000   0.0000
 -------------------------------------
  Loewdin analysis of TDA State   10
 -------------------------------------
   Atom      e-      h+     (Del)q    
 -------------------------------------
      1  -0.2447   0.2006  -0.0441
      2  -0.0027   0.0247   0.0221
      3  -0.0027   0.0247   0.0221
      4  -0.2447   0.2006  -0.0441
      5  -0.0027   0.0247   0.0221
      6  -0.0027   0.0247   0.0221
      7  -0.2447   0.2006  -0.0441
      8  -0.0027   0.0247   0.0221
      9  -0.0027   0.0247   0.0221
     10  -0.2447   0.2006  -0.0441
     11  -0.0027   0.0247   0.0221
     12  -0.0027   0.0247   0.0221
  Sum:   -1.0000   1.0000   0.0000
 -------------------------------------
  Mulliken analysis of TDA State   11
 -------------------------------------
   Atom      e-      h+     (Del)q    
 -------------------------------------
      1  -0.0307   0.2485   0.2178
      2  -0.1096   0.0007  -0.1089
      3  -0.1096   0.0007  -0.1089
      4  -0.0307   0.2485   0.2178
      5  -0.1096   0.0007  -0.1089
      6  -0.1096   0.0007  -0.1089
      7  -0.0307   0.2485   0.2178
      8  -0.1096   0.0007  -0.1089
      9  -0.1096   0.0007  -0.1089
     10  -0.0307   0.2485   0.2178
     11  -0.1096   0.0007  -0.1089
     12  -0.1096   0.0007  -0.1089
  Sum:   -1.0000   1.0000  -0.0000
 -------------------------------------
  Loewdin analysis of TDA State   11
 -------------------------------------
   Atom      e-      h+     (Del)q    
 -------------------------------------
      1  -0.1114   0.2485   0.1372
      2  -0.0693   0.0007  -0.0686
      3  -0.0693   0.0007  -0.0686
      4  -0.1114   0.2485   0.1372
      5  -0.0693   0.0007  -0.0686
      6  -0.0693   0.0007  -0.0686
      7  -0.1114   0.2486   0.1372
      8  -0.0693   0.0007  -0.0686
      9  -0.0693   0.0007  -0.0686
     10  -0.1114   0.2486   0.1372
     11  -0.0693   0.0007  -0.0686
     12  -0.0693   0.0007  -0.0686
  Sum:   -1.0000   1.0000  -0.0000
 -------------------------------------
  Mulliken analysis of TDA State   12
 -------------------------------------
   Atom      e-      h+     (Del)q    
 -------------------------------------
      1  -0.0308   0.2485   0.2178
      2  -0.1096   0.0007  -0.1089
      3  -0.1096   0.0007  -0.1089
      4  -0.0308   0.2485   0.2178
      5  -0.1096   0.0007  -0.1089
      6  -0.1096   0.0007  -0.1089
      7  -0.0307   0.2485   0.2177
      8  -0.1096   0.0007  -0.1089
      9  -0.1096   0.0007  -0.1089
     10  -0.0307   0.2485   0.2177
     11  -0.1096   0.0007  -0.1089
     12  -0.1096   0.0007  -0.1089
  Sum:   -1.0000   1.0000  -0.0000
 -------------------------------------
  Loewdin analysis of TDA State   12
 -------------------------------------
   Atom      e-      h+     (Del)q    
 -------------------------------------
      1  -0.1114   0.2486   0.1372
      2  -0.0693   0.0007  -0.0686
      3  -0.0693   0.0007  -0.0686
      4  -0.1114   0.2486   0.1372
      5  -0.0693   0.0007  -0.0686
      6  -0.0693   0.0007  -0.0686
      7  -0.1114   0.2485   0.1372
      8  -0.0693   0.0007  -0.0686
      9  -0.0693   0.0007  -0.0686
     10  -0.1114   0.2485   0.1372
     11  -0.0693   0.0007  -0.0686
     12  -0.0693   0.0007  -0.0686
  Sum:   -1.0000   1.0000  -0.0000
 -------------------------------------
 
 --------------------------------------------------------------
             Orbital Energies (a.u.) and Symmetries
 --------------------------------------------------------------
 Warning : Irrep of orbital(   1) could not be determined
 Warning : Irrep of orbital(   2) could not be determined
 Warning : Irrep of orbital(   3) could not be determined
 Warning : Irrep of orbital(   4) could not be determined
 Warning : Irrep of orbital(   5) could not be determined
 Warning : Irrep of orbital(   6) could not be determined
 Warning : Irrep of orbital(   9) could not be determined
 Warning : Irrep of orbital(  10) could not be determined
 Warning : Irrep of orbital(  11) could not be determined
 Warning : Irrep of orbital(  12) could not be determined
 Warning : Irrep of orbital(  15) could not be determined
 Warning : Irrep of orbital(  16) could not be determined
 Warning : Irrep of orbital(  17) could not be determined
 Warning : Irrep of orbital(  18) could not be determined
 Warning : Irrep of orbital(  31) could not be determined
 Warning : Irrep of orbital(  32) could not be determined
 Warning : Irrep of orbital(  35) could not be determined
 Warning : Irrep of orbital(  36) could not be determined
 
 Alpha MOs, Restricted
 -- Occupied --                  
-11.235 -11.235 -11.233 -11.233  -1.030  -1.030  -0.787  -0.787
  0 xxx   0 xxx   0 xxx   0 xxx   0 xxx   0 xxx   1 B2u   1 B1g                
 -0.637  -0.637  -0.581  -0.581  -0.498  -0.498  -0.370  -0.370
  0 xxx   0 xxx   0 xxx   0 xxx   1 B3g   1 Au    0 xxx   0 xxx                
 -- Virtual --                   
  0.173   0.173   0.262   0.262   0.288   0.288   0.304   0.304
  0 xxx   0 xxx   1 Ag    1 B3u   1 B1u   1 B2g   2 B2u   2 B1g                
  0.389   0.389   0.487   0.487   0.684   0.684   0.786   0.786
  2 Au    2 B3g   3 B1g   3 B2u   2 Ag    2 B3u   0 xxx   0 xxx                
  0.787   0.787   0.888   0.888   0.896   0.896   0.988   0.988
  2 B2g   2 B1u   0 xxx   0 xxx   3 Ag    3 B3u   4 B2u   4 B1g                
  1.147   1.147   1.188   1.188   1.224   1.224   1.236   1.236
  3 Au    3 B3g   3 B1u   3 B2g   4 Ag    4 B3u   5 B2u   5 B1g                
  1.374   1.374   1.513   1.513
  6 B1g   6 B2u   4 Au    4 B3g                                                
 
 Beta MOs, Restricted
 -- Occupied --                  
-11.235 -11.235 -11.233 -11.233  -1.030  -1.030  -0.787  -0.787
  0 xxx   0 xxx   0 xxx   0 xxx   0 xxx   0 xxx   1 B2u   1 B1g                
 -0.637  -0.637  -0.581  -0.581  -0.498  -0.498  -0.370  -0.370
  0 xxx   0 xxx   0 xxx   0 xxx   1 B3g   1 Au    0 xxx   0 xxx                
 -- Virtual --                   
  0.173   0.173   0.262   0.262   0.288   0.288   0.304   0.304
  0 xxx   0 xxx   1 Ag    1 B3u   1 B1u   1 B2g   2 B2u   2 B1g                
  0.389   0.389   0.487   0.487   0.684   0.684   0.786   0.786
  2 Au    2 B3g   3 B1g   3 B2u   2 Ag    2 B3u   0 xxx   0 xxx                
  0.787   0.787   0.888   0.888   0.896   0.896   0.988   0.988
  2 B2g   2 B1u   0 xxx   0 xxx   3 Ag    3 B3u   4 B2u   4 B1g                
  1.147   1.147   1.188   1.188   1.224   1.224   1.236   1.236
  3 Au    3 B3g   3 B1u   3 B2g   4 Ag    4 B3u   5 B2u   5 B1g                
  1.374   1.374   1.513   1.513
  6 B1g   6 B2u   4 Au    4 B3g                                                
 --------------------------------------------------------------
 
          Ground-State Mulliken Net Atomic Charges

     Atom                 Charge (a.u.)
  ----------------------------------------
      1 C                    -0.328572
      2 H                     0.164286
      3 H                     0.164286
      4 C                    -0.328572
      5 H                     0.164286
      6 H                     0.164286
      7 C                    -0.328572
      8 H                     0.164286
      9 H                     0.164286
     10 C                    -0.328572
     11 H                     0.164286
     12 H                     0.164286
  ----------------------------------------
  Sum of atomic charges =     0.000000

         TDA Excited State  1:  Mulliken Net Atomic Charges

     Atom                 Charge (a.u.)
  ----------------------------------------
      1 C                    -0.344300
      2 H                     0.172150
      3 H                     0.172150
      4 C                    -0.344300
      5 H                     0.172150
      6 H                     0.172150
      7 C                    -0.344301
      8 H                     0.172151
      9 H                     0.172151
     10 C                    -0.344301
     11 H                     0.172151
     12 H                     0.172151
  ----------------------------------------
  Sum of atomic charges =     0.000000

         TDA Excited State  2:  Mulliken Net Atomic Charges

     Atom                 Charge (a.u.)
  ----------------------------------------
      1 C                    -0.344727
      2 H                     0.172363
      3 H                     0.172363
      4 C                    -0.344727
      5 H                     0.172363
      6 H                     0.172363
      7 C                    -0.344728
      8 H                     0.172364
      9 H                     0.172364
     10 C                    -0.344728
     11 H                     0.172364
     12 H                     0.172364
  ----------------------------------------
  Sum of atomic charges =     0.000000

         TDA Excited State  3:  Mulliken Net Atomic Charges

     Atom                 Charge (a.u.)
  ----------------------------------------
      1 C                    -0.421558
      2 H                     0.210779
      3 H                     0.210779
      4 C                    -0.421558
      5 H                     0.210779
      6 H                     0.210779
      7 C                    -0.421556
      8 H                     0.210778
      9 H                     0.210778
     10 C                    -0.421556
     11 H                     0.210778
     12 H                     0.210778
  ----------------------------------------
  Sum of atomic charges =     0.000000

         TDA Excited State  4:  Mulliken Net Atomic Charges

     Atom                 Charge (a.u.)
  ----------------------------------------
      1 C                    -0.421536
      2 H                     0.210768
      3 H                     0.210768
      4 C                    -0.421536
      5 H                     0.210768
      6 H                     0.210768
      7 C                    -0.421535
      8 H                     0.210767
      9 H                     0.210767
     10 C                    -0.421535
     11 H                     0.210767
     12 H                     0.210767
  ----------------------------------------
  Sum of atomic charges =     0.000000

         TDA Excited State  5:  Mulliken Net Atomic Charges

     Atom                 Charge (a.u.)
  ----------------------------------------
      1 C                    -0.195156
      2 H                     0.097578
      3 H                     0.097578
      4 C                    -0.195156
      5 H                     0.097578
      6 H                     0.097578
      7 C                    -0.195146
      8 H                     0.097573
      9 H                     0.097573
     10 C                    -0.195146
     11 H                     0.097573
     12 H                     0.097573
  ----------------------------------------
  Sum of atomic charges =     0.000000

         TDA Excited State  6:  Mulliken Net Atomic Charges

     Atom                 Charge (a.u.)
  ----------------------------------------
      1 C                    -0.195144
      2 H                     0.097572
      3 H                     0.097572
      4 C                    -0.195144
      5 H                     0.097572
      6 H                     0.097572
      7 C                    -0.195163
      8 H                     0.097581
      9 H                     0.097581
     10 C                    -0.195163
     11 H                     0.097581
     12 H                     0.097581
  ----------------------------------------
  Sum of atomic charges =     0.000000

         TDA Excited State  7:  Mulliken Net Atomic Charges

     Atom                 Charge (a.u.)
  ----------------------------------------
      1 C                    -0.192314
      2 H                     0.096157
      3 H                     0.096157
      4 C                    -0.192314
      5 H                     0.096157
      6 H                     0.096157
      7 C                    -0.192293
      8 H                     0.096147
      9 H                     0.096147
     10 C                    -0.192293
     11 H                     0.096147
     12 H                     0.096147
  ----------------------------------------
  Sum of atomic charges =     0.000000

         TDA Excited State  8:  Mulliken Net Atomic Charges

     Atom                 Charge (a.u.)
  ----------------------------------------
      1 C                    -0.192301
      2 H                     0.096151
      3 H                     0.096151
      4 C                    -0.192301
      5 H                     0.096151
      6 H                     0.096151
      7 C                    -0.192329
      8 H                     0.096164
      9 H                     0.096164
     10 C                    -0.192329
     11 H                     0.096164
     12 H                     0.096164
  ----------------------------------------
  Sum of atomic charges =     0.000000

         TDA Excited State  9:  Mulliken Net Atomic Charges

     Atom                 Charge (a.u.)
  ----------------------------------------
      1 C                    -0.377267
      2 H                     0.188633
      3 H                     0.188633
      4 C                    -0.377267
      5 H                     0.188633
      6 H                     0.188633
      7 C                    -0.377270
      8 H                     0.188635
      9 H                     0.188635
     10 C                    -0.377270
     11 H                     0.188635
     12 H                     0.188635
  ----------------------------------------
  Sum of atomic charges =     0.000000

         TDA Excited State 10:  Mulliken Net Atomic Charges

     Atom                 Charge (a.u.)
  ----------------------------------------
      1 C                    -0.377236
      2 H                     0.188618
      3 H                     0.188618
      4 C                    -0.377236
      5 H                     0.188618
      6 H                     0.188618
      7 C                    -0.377236
      8 H                     0.188618
      9 H                     0.188618
     10 C                    -0.377236
     11 H                     0.188618
     12 H                     0.188618
  ----------------------------------------
  Sum of atomic charges =     0.000000

         TDA Excited State 11:  Mulliken Net Atomic Charges

     Atom                 Charge (a.u.)
  ----------------------------------------
      1 C                    -0.210453
      2 H                     0.105226
      3 H                     0.105226
      4 C                    -0.210453
      5 H                     0.105226
      6 H                     0.105226
      7 C                    -0.210448
      8 H                     0.105224
      9 H                     0.105224
     10 C                    -0.210448
     11 H                     0.105224
     12 H                     0.105224
  ----------------------------------------
  Sum of atomic charges =     0.000000

         TDA Excited State 12:  Mulliken Net Atomic Charges

     Atom                 Charge (a.u.)
  ----------------------------------------
      1 C                    -0.210460
      2 H                     0.105230
      3 H                     0.105230
      4 C                    -0.210460
      5 H                     0.105230
      6 H                     0.105230
      7 C                    -0.210471
      8 H                     0.105235
      9 H                     0.105235
     10 C                    -0.210471
     11 H                     0.105235
     12 H                     0.105235
  ----------------------------------------
  Sum of atomic charges =     0.000000

 -----------------------------------------------------------------
                    Cartesian Multipole Moments
 -----------------------------------------------------------------
    Charge (ESU x 10^10)
                 0.0000
    Dipole Moment (Debye)
         X       0.0000      Y       0.0000      Z       0.0000
       Tot       0.0000
    Quadrupole Moments (Debye-Ang)
        XX     -31.3408     XY       0.0000     YY     -24.3220
        XZ       0.0000     YZ       0.0000     ZZ     -24.6702
    Octopole Moments (Debye-Ang^2)
       XXX       0.0000    XXY       0.0000    XYY       0.0000
       YYY       0.0000    XXZ       0.0000    XYZ       0.0000
       YYZ       0.0000    XZZ       0.0000    YZZ       0.0000
       ZZZ       0.0000
    Hexadecapole Moments (Debye-Ang^3)
      XXXX   -3428.0246   XXXY       0.0000   XXYY    -469.6795
      XYYY       0.0000   YYYY    -134.6077   XXXZ       0.0000
      XXYZ       0.0000   XYYZ       0.0000   YYYZ       0.0000
      XXZZ    -461.2505   XYZZ       0.0000   YYZZ     -26.2817
      XZZZ       0.0000   YZZZ       0.0000   ZZZZ     -52.6175
 -----------------------------------------------------------------
Archival summary:
1\1\woodstock\SP\HF\6-31G\48\lindorfe\WedJan2915:54:242020WedJan2915:54:242020\0\\#,HF,6-31G,\\0,1\C\H,1,1.08931\H,1,1.08931,2,116.791\C,1,1.34104,2,121.604,3,180,0\H,4,1.08931,1,121.604,2,-180,0\H,4,1.08931,1,121.604,2,0,0\H,5,8.5,4,90,1,90,0\C,7,1.08931,5,90,4,0,0\H,8,1.08931,7,116.791,5,90,0\C,8,1.34104,7,121.604,5,-90,0\H,10,1.08931,8,121.604,7,180,0\H,10,1.08931,8,121.604,7,0,0\\HF=-156.006578\\@

 Total job time:  0.96s(wall), 0.96s(cpu) 
 Wed Jan 29 15:54:24 2020

        *************************************************************
        *                                                           *
        *  Thank you very much for using Q-Chem.  Have a nice day.  *
        *                                                           *
        *************************************************************


